    1C
    1UUSER                                                              
    1UDATE              23.august.2016                                  
    1UTIME              11:04:51                                        
    1UHOST                                                              
    1UPGM               CalculiX                                        
    1UVERSION           Version 2.10                             
    1UCOMPILETIME       Sa 5. Mär 12:23:33 CET 2016                    
    1UDIR                                                               
    1UDBN                                                               
    1UMAT    1SI1                                                       
    1UMAT    2EL                                                        
    1UMAT    3SPRING                                                    
    2C                            72                                     1
 -1         1 0.00000E+00 0.00000E+00 0.00000E+00
 -1         2 5.00000E+02 0.00000E+00 0.00000E+00
 -1         3 5.10000E+02 0.00000E+00 0.00000E+00
 -1         4 1.01000E+03 0.00000E+00 0.00000E+00
 -1         5 1.02000E+03 0.00000E+00 0.00000E+00
 -1         6 1.52000E+03 0.00000E+00 0.00000E+00
 -1         7 0.00000E+00 5.00000E+02 0.00000E+00
 -1         8 5.00000E+02 5.00000E+02 0.00000E+00
 -1         9 5.10000E+02 5.00000E+02 0.00000E+00
 -1        10 1.01000E+03 5.00000E+02 0.00000E+00
 -1        11 1.02000E+03 5.00000E+02 0.00000E+00
 -1        12 1.52000E+03 5.00000E+02 0.00000E+00
 -1        13 0.00000E+00 5.10000E+02 0.00000E+00
 -1        14 5.00000E+02 5.10000E+02 0.00000E+00
 -1        15 5.10000E+02 5.10000E+02 0.00000E+00
 -1        16 1.01000E+03 5.10000E+02 0.00000E+00
 -1        17 1.02000E+03 5.10000E+02 0.00000E+00
 -1        18 1.52000E+03 5.10000E+02 0.00000E+00
 -1        19 0.00000E+00 1.01000E+03 0.00000E+00
 -1        20 5.00000E+02 1.01000E+03 0.00000E+00
 -1        21 5.10000E+02 1.01000E+03 0.00000E+00
 -1        22 1.01000E+03 1.01000E+03 0.00000E+00
 -1        23 1.02000E+03 1.01000E+03 0.00000E+00
 -1        24 1.52000E+03 1.01000E+03 0.00000E+00
 -1        25 0.00000E+00 1.02000E+03 0.00000E+00
 -1        26 5.00000E+02 1.02000E+03 0.00000E+00
 -1        27 5.10000E+02 1.02000E+03 0.00000E+00
 -1        28 1.01000E+03 1.02000E+03 0.00000E+00
 -1        29 1.02000E+03 1.02000E+03 0.00000E+00
 -1        30 1.52000E+03 1.02000E+03 0.00000E+00
 -1        31 0.00000E+00 1.52000E+03 0.00000E+00
 -1        32 5.00000E+02 1.52000E+03 0.00000E+00
 -1        33 5.10000E+02 1.52000E+03 0.00000E+00
 -1        34 1.01000E+03 1.52000E+03 0.00000E+00
 -1        35 1.02000E+03 1.52000E+03 0.00000E+00
 -1        36 1.52000E+03 1.52000E+03 0.00000E+00
 -1        37 0.00000E+00 0.00000E+00 7.00000E+02
 -1        38 5.00000E+02 0.00000E+00 7.00000E+02
 -1        39 5.10000E+02 0.00000E+00 7.00000E+02
 -1        40 1.01000E+03 0.00000E+00 7.00000E+02
 -1        41 1.02000E+03 0.00000E+00 7.00000E+02
 -1        42 1.52000E+03 0.00000E+00 7.00000E+02
 -1        43 0.00000E+00 5.00000E+02 7.00000E+02
 -1        44 5.00000E+02 5.00000E+02 7.00000E+02
 -1        45 5.10000E+02 5.00000E+02 7.00000E+02
 -1        46 1.01000E+03 5.00000E+02 7.00000E+02
 -1        47 1.02000E+03 5.00000E+02 7.00000E+02
 -1        48 1.52000E+03 5.00000E+02 7.00000E+02
 -1        49 0.00000E+00 5.10000E+02 7.00000E+02
 -1        50 5.00000E+02 5.10000E+02 7.00000E+02
 -1        51 5.10000E+02 5.10000E+02 7.00000E+02
 -1        52 1.01000E+03 5.10000E+02 7.00000E+02
 -1        53 1.02000E+03 5.10000E+02 7.00000E+02
 -1        54 1.52000E+03 5.10000E+02 7.00000E+02
 -1        55 0.00000E+00 1.01000E+03 7.00000E+02
 -1        56 5.00000E+02 1.01000E+03 7.00000E+02
 -1        57 5.10000E+02 1.01000E+03 7.00000E+02
 -1        58 1.01000E+03 1.01000E+03 7.00000E+02
 -1        59 1.02000E+03 1.01000E+03 7.00000E+02
 -1        60 1.52000E+03 1.01000E+03 7.00000E+02
 -1        61 0.00000E+00 1.02000E+03 7.00000E+02
 -1        62 5.00000E+02 1.02000E+03 7.00000E+02
 -1        63 5.10000E+02 1.02000E+03 7.00000E+02
 -1        64 1.01000E+03 1.02000E+03 7.00000E+02
 -1        65 1.02000E+03 1.02000E+03 7.00000E+02
 -1        66 1.52000E+03 1.02000E+03 7.00000E+02
 -1        67 0.00000E+00 1.52000E+03 7.00000E+02
 -1        68 5.00000E+02 1.52000E+03 7.00000E+02
 -1        69 5.10000E+02 1.52000E+03 7.00000E+02
 -1        70 1.01000E+03 1.52000E+03 7.00000E+02
 -1        71 1.02000E+03 1.52000E+03 7.00000E+02
 -1        72 1.52000E+03 1.52000E+03 7.00000E+02
 -3
    3C                            57                                     1
 -1         1    1    0    2
 -2         1         2         8         7        37        38        44        43
 -1         2    1    0    2
 -2         3         4        10         9        39        40        46        45
 -1         3    1    0    2
 -2         5         6        12        11        41        42        48        47
 -1         4    1    0    2
 -2        13        14        20        19        49        50        56        55
 -1         5    1    0    2
 -2        15        16        22        21        51        52        58        57
 -1         6    1    0    2
 -2        17        18        24        23        53        54        60        59
 -1         7    1    0    2
 -2        25        26        32        31        61        62        68        67
 -1         8    1    0    2
 -2        27        28        34        33        63        64        70        69
 -1         9    1    0    2
 -2        29        30        36        35        65        66        72        71
 -1        10   11    0    3
 -2         2         3
 -1        11   11    0    3
 -2         8         9
 -1        12   11    0    3
 -2        38        39
 -1        13   11    0    3
 -2        44        45
 -1        14   11    0    3
 -2         4         5
 -1        15   11    0    3
 -2        10        11
 -1        16   11    0    3
 -2        40        41
 -1        17   11    0    3
 -2        46        47
 -1        18   11    0    3
 -2        14        15
 -1        19   11    0    3
 -2        20        21
 -1        20   11    0    3
 -2        50        51
 -1        21   11    0    3
 -2        56        57
 -1        22   11    0    3
 -2        16        17
 -1        23   11    0    3
 -2        22        23
 -1        24   11    0    3
 -2        52        53
 -1        25   11    0    3
 -2        58        59
 -1        26   11    0    3
 -2        26        27
 -1        27   11    0    3
 -2        32        33
 -1        28   11    0    3
 -2        62        63
 -1        29   11    0    3
 -2        68        69
 -1        30   11    0    3
 -2        28        29
 -1        31   11    0    3
 -2        34        35
 -1        32   11    0    3
 -2        64        65
 -1        33   11    0    3
 -2        70        71
 -1        34   11    0    3
 -2         7        13
 -1        35   11    0    3
 -2         8        14
 -1        36   11    0    3
 -2        44        50
 -1        37   11    0    3
 -2        43        49
 -1        38   11    0    3
 -2         9        15
 -1        39   11    0    3
 -2        10        16
 -1        40   11    0    3
 -2        46        52
 -1        41   11    0    3
 -2        45        51
 -1        42   11    0    3
 -2        11        17
 -1        43   11    0    3
 -2        12        18
 -1        44   11    0    3
 -2        48        54
 -1        45   11    0    3
 -2        47        53
 -1        46   11    0    3
 -2        19        25
 -1        47   11    0    3
 -2        20        26
 -1        48   11    0    3
 -2        56        62
 -1        49   11    0    3
 -2        55        61
 -1        50   11    0    3
 -2        21        27
 -1        51   11    0    3
 -2        22        28
 -1        52   11    0    3
 -2        58        64
 -1        53   11    0    3
 -2        57        63
 -1        54   11    0    3
 -2        23        29
 -1        55   11    0    3
 -2        24        30
 -1        56   11    0    3
 -2        60        66
 -1        57   11    0    3
 -2        59        65
 -3
    1PSTEP                         1           1           1          
  100CL  101 1.00000E-03          72                     0    1           1
 -4  DISP        4    1
 -5  D1          1    2    1    0
 -5  D2          1    2    2    0
 -5  D3          1    2    3    0
 -5  ALL         1    2    0    0    1ALL
 -1         1 0.00000E+00 0.00000E+00 0.00000E+00
 -1         2-2.85714E-10 0.00000E+00 0.00000E+00
 -1         3-1.50000E-02 0.00000E+00 0.00000E+00
 -1         4-1.50000E-02 0.00000E+00 0.00000E+00
 -1         5-3.00000E-02 0.00000E+00 0.00000E+00
 -1         6-3.00000E-02 0.00000E+00 0.00000E+00
 -1         7 0.00000E+00-2.85714E-10 0.00000E+00
 -1         8-2.85714E-10-2.85714E-10 0.00000E+00
 -1         9-1.50000E-02-2.85714E-10 0.00000E+00
 -1        10-1.50000E-02-2.85714E-10 0.00000E+00
 -1        11-3.00000E-02-2.85714E-10 0.00000E+00
 -1        12-3.00000E-02-2.85714E-10 0.00000E+00
 -1        13 0.00000E+00-1.50000E-02 0.00000E+00
 -1        14-2.85714E-10-1.50000E-02 0.00000E+00
 -1        15-1.50000E-02-1.50000E-02 0.00000E+00
 -1        16-1.50000E-02-1.50000E-02 0.00000E+00
 -1        17-3.00000E-02-1.50000E-02 0.00000E+00
 -1        18-3.00000E-02-1.50000E-02 0.00000E+00
 -1        19 0.00000E+00-1.50000E-02 0.00000E+00
 -1        20-2.85714E-10-1.50000E-02 0.00000E+00
 -1        21-1.50000E-02-1.50000E-02 0.00000E+00
 -1        22-1.50000E-02-1.50000E-02 0.00000E+00
 -1        23-3.00000E-02-1.50000E-02 0.00000E+00
 -1        24-3.00000E-02-1.50000E-02 0.00000E+00
 -1        25 0.00000E+00-3.00000E-02 0.00000E+00
 -1        26-2.85714E-10-3.00000E-02 0.00000E+00
 -1        27-1.50000E-02-3.00000E-02 0.00000E+00
 -1        28-1.50000E-02-3.00000E-02 0.00000E+00
 -1        29-3.00000E-02-3.00000E-02 0.00000E+00
 -1        30-3.00000E-02-3.00000E-02 0.00000E+00
 -1        31 0.00000E+00-3.00000E-02 0.00000E+00
 -1        32-2.85714E-10-3.00000E-02 0.00000E+00
 -1        33-1.50000E-02-3.00000E-02 0.00000E+00
 -1        34-1.50000E-02-3.00000E-02 0.00000E+00
 -1        35-3.00000E-02-3.00000E-02 0.00000E+00
 -1        36-3.00000E-02-3.00000E-02 0.00000E+00
 -1        37 0.00000E+00 0.00000E+00 3.42857E-10
 -1        38-2.85714E-10 0.00000E+00 3.42857E-10
 -1        39-1.50000E-02 0.00000E+00 3.42857E-10
 -1        40-1.50000E-02 0.00000E+00 3.42857E-10
 -1        41-3.00000E-02 0.00000E+00 3.42857E-10
 -1        42-3.00000E-02 0.00000E+00 3.42857E-10
 -1        43 0.00000E+00-2.85714E-10 3.42857E-10
 -1        44-2.85714E-10-2.85714E-10 3.42857E-10
 -1        45-1.50000E-02-2.85714E-10 3.42857E-10
 -1        46-1.50000E-02-2.85714E-10 3.42857E-10
 -1        47-3.00000E-02-2.85714E-10 3.42857E-10
 -1        48-3.00000E-02-2.85714E-10 3.42857E-10
 -1        49 0.00000E+00-1.50000E-02 3.42857E-10
 -1        50-2.85714E-10-1.50000E-02 3.42857E-10
 -1        51-1.50000E-02-1.50000E-02 3.42857E-10
 -1        52-1.50000E-02-1.50000E-02 3.42857E-10
 -1        53-3.00000E-02-1.50000E-02 3.42857E-10
 -1        54-3.00000E-02-1.50000E-02 3.42857E-10
 -1        55 0.00000E+00-1.50000E-02 3.42857E-10
 -1        56-2.85714E-10-1.50000E-02 3.42857E-10
 -1        57-1.50000E-02-1.50000E-02 3.42857E-10
 -1        58-1.50000E-02-1.50000E-02 3.42857E-10
 -1        59-3.00000E-02-1.50000E-02 3.42857E-10
 -1        60-3.00000E-02-1.50000E-02 3.42857E-10
 -1        61 0.00000E+00-3.00000E-02 3.42857E-10
 -1        62-2.85714E-10-3.00000E-02 3.42857E-10
 -1        63-1.50000E-02-3.00000E-02 3.42857E-10
 -1        64-1.50000E-02-3.00000E-02 3.42857E-10
 -1        65-3.00000E-02-3.00000E-02 3.42857E-10
 -1        66-3.00000E-02-3.00000E-02 3.42857E-10
 -1        67 0.00000E+00-3.00000E-02 3.42857E-10
 -1        68-2.85714E-10-3.00000E-02 3.42857E-10
 -1        69-1.50000E-02-3.00000E-02 3.42857E-10
 -1        70-1.50000E-02-3.00000E-02 3.42857E-10
 -1        71-3.00000E-02-3.00000E-02 3.42857E-10
 -1        72-3.00000E-02-3.00000E-02 3.42857E-10
 -3
    1PSTEP                         2           1           1          
  100CL  101 1.00000E-03          72                     0    1           1
 -4  STRESS      6    1
 -5  SXX         1    4    1    1
 -5  SYY         1    4    2    2
 -5  SZZ         1    4    3    3
 -5  SXY         1    4    1    2
 -5  SYZ         1    4    2    3
 -5  SZX         1    4    3    1
 -1         1-1.71422E-07-1.71422E-07-5.42366E-23-5.19267E-25-4.57775E-24-1.25851E-24
 -1         2-8.57109E-08-8.57109E-08-6.98940E-23-5.17850E-25 4.51733E-24 1.90318E-23
 -1         3-8.57109E-08-8.57109E-08 2.06819E-16 1.42052E-16 1.09992E-22 2.76091E-17
 -1         4-8.57109E-08-8.57109E-08 2.39808E-16-3.09036E-16 9.21606E-23-1.89787E-16
 -1         5-8.57109E-08-8.57109E-08-4.69862E-17-3.20436E-16-4.43996E-22 9.57009E-16
 -1         6-1.71422E-07-1.71422E-07-1.19360E-16 7.49895E-16-4.75905E-22-1.39420E-15
 -1         7-8.57109E-08-8.57109E-08-1.38664E-22 1.46431E-24 7.46935E-23 1.05140E-24
 -1         8-5.71406E-08-5.71406E-08-7.77093E-23 8.04062E-25 4.82165E-23 5.39798E-24
 -1         9-5.71406E-08-5.71406E-08 4.45622E-17 1.49203E-17-4.03075E-17 3.10674E-16
 -1        10-5.71406E-08-5.71406E-08-9.84181E-17-9.38660E-17 2.14848E-17 7.76539E-17
 -1        11-5.71406E-08-5.71406E-08 3.26983E-16-1.91474E-16-7.22594E-17-5.81274E-17
 -1        12-8.57109E-08-8.57109E-08 1.85098E-16-9.25221E-17 6.81244E-17-1.44316E-16
 -1        13-8.57109E-08-8.57109E-08 8.62925E-17-1.41327E-16 2.15688E-16-1.11790E-23
 -1        14-5.71406E-08-5.71406E-08-1.18343E-16-8.55668E-17-3.13011E-17-1.27004E-19
 -1        15-5.71406E-08-5.71406E-08-3.21752E-16-1.04581E-16-3.88404E-16-1.45228E-16
 -1        16-5.71406E-08-5.71406E-08 8.68943E-17 9.18481E-17 2.24953E-16-8.90738E-17
 -1        17-5.71406E-08-5.71406E-08 2.18587E-17 2.31356E-16-2.25573E-18-7.99291E-17
 -1        18-8.57109E-08-8.57108E-08 7.98168E-16 2.63475E-16 3.63087E-16-1.19138E-15
 -1        19-8.57109E-08-8.57109E-08 2.01909E-17-1.39874E-16-3.19378E-16 8.83540E-23
 -1        20-5.71406E-08-5.71406E-08-9.24493E-17-8.45985E-17 5.59046E-16-9.32896E-18
 -1        21-5.71406E-08-5.71406E-08 1.91459E-16-7.34929E-18 3.37208E-17 1.08228E-16
 -1        22-5.71406E-08-5.71406E-08-1.44584E-17 2.80857E-16 2.87858E-17-1.34644E-16
 -1        23-5.71406E-08-5.71406E-08-2.98206E-16 4.18452E-16-2.76783E-16-4.47929E-16
 -1        24-8.57109E-08-8.57109E-08-8.21957E-16 2.32984E-17 7.38676E-17 1.22423E-15
 -1        25-8.57109E-08-8.57109E-08 4.20270E-16 9.16833E-18 3.92992E-16 1.15960E-22
 -1        26-5.71406E-08-5.71406E-08 3.10889E-16-2.98081E-17 3.59510E-16-9.74892E-19
 -1        27-5.71406E-08-5.71406E-08 2.55081E-16 2.47405E-16 2.32107E-16 1.32803E-16
 -1        28-5.71406E-08-5.71406E-08 8.02499E-16 3.85037E-16 2.59721E-17 5.59023E-19
 -1        29-5.71406E-08-5.71406E-08-3.13836E-16 1.26395E-16-7.17599E-16 2.23052E-16
 -1        30-8.57109E-08-8.57108E-08 2.41306E-16 1.97038E-16 5.21160E-16-4.01760E-16
 -1        31-1.71422E-07-1.71422E-07 1.41493E-15-4.90229E-18 6.73859E-16 1.08310E-21
 -1        32-8.57109E-08-8.57109E-08 1.38754E-16-5.63316E-17-3.72976E-16 5.09693E-18
 -1        33-8.57109E-08-8.57108E-08 4.34794E-16-2.93837E-16-2.60963E-16 2.73264E-16
 -1        34-8.57109E-08-8.57109E-08-5.24621E-16 5.02759E-17 3.14855E-16-9.78127E-17
 -1        35-8.57109E-08-8.57109E-08-1.89135E-16 3.07020E-16-1.08883E-16-4.39322E-16
 -1        36-1.71422E-07-1.71422E-07-8.20732E-16-3.72459E-16 3.37084E-18 5.82412E-16
 -1        37-1.71422E-07-1.71422E-07 4.31649E-22 6.46455E-25-6.10580E-23-2.48593E-23
 -1        38-8.57109E-08-8.57109E-08 7.91081E-23-1.84643E-24-3.21331E-23 7.23146E-24
 -1        39-8.57109E-08-8.57109E-08-3.81940E-16-1.18996E-16 5.76280E-17 2.61249E-16
 -1        40-8.57109E-08-8.57109E-08-1.54304E-16 3.84854E-16-4.13559E-17-1.13169E-17
 -1        41-8.57109E-08-8.57109E-08-5.17404E-16-7.75356E-16 9.88117E-17-3.13206E-16
 -1        42-1.71422E-07-1.71422E-07-3.18841E-16-3.40374E-16-3.65224E-17 8.02977E-17
 -1        43-8.57109E-08-8.57109E-08 1.03380E-23-1.13329E-23 4.64534E-23-9.21983E-24
 -1        44-5.71406E-08-5.71406E-08 4.84432E-24-9.00174E-24 2.37829E-23-1.44951E-24
 -1        45-5.71406E-08-5.71406E-08 2.67776E-16 3.38201E-17-1.88895E-18-3.03365E-16
 -1        46-5.71406E-08-5.71406E-08 2.54560E-16 5.80581E-17-6.08587E-18 1.67424E-16
 -1        47-5.71406E-08-5.71406E-08 2.18611E-16-4.92771E-16-6.38466E-18-2.60396E-16
 -1        48-8.57109E-08-8.57109E-08 3.93218E-16 5.20637E-16 4.98634E-17 3.15555E-16
 -1        49-8.57109E-08-8.57109E-08-3.59633E-16 9.71180E-17-1.28807E-16-1.61851E-17
 -1        50-5.71406E-08-5.71406E-08 1.48783E-16 6.05134E-17 9.83589E-17-1.09171E-17
 -1        51-5.71406E-08-5.71406E-08-1.95849E-16 5.03037E-16 1.73077E-16-3.00746E-16
 -1        52-5.71406E-08-5.71406E-08 1.70877E-16 4.32074E-16 3.14422E-17 4.65478E-16
 -1        53-5.71406E-08-5.71406E-08-8.47649E-16 4.00639E-16-3.46222E-18 3.46213E-16
 -1        54-8.57109E-08-8.57109E-08-7.90133E-17-1.57351E-16-5.79129E-16 3.11734E-16
 -1        55-8.57109E-08-8.57109E-08-4.54721E-16 2.16055E-17 1.40995E-16 2.57922E-17
 -1        56-5.71406E-08-5.71406E-08 1.55353E-16 1.01717E-17-1.89054E-17 7.86575E-18
 -1        57-5.71406E-08-5.71406E-08 4.03717E-16 7.91323E-18-5.98768E-18 1.29803E-17
 -1        58-5.71406E-08-5.71406E-08 1.11444E-16-8.97152E-19-2.53256E-17-2.90035E-16
 -1        59-5.71406E-08-5.71406E-08-1.13344E-16-1.69958E-16-8.13878E-18 4.27006E-16
 -1        60-8.57109E-08-8.57109E-08-3.17542E-16 6.87702E-16 2.91829E-16-6.87523E-16
 -1        61-8.57109E-08-8.57108E-08 8.69093E-16-4.76436E-16-8.06129E-17-7.85681E-17
 -1        62-5.71406E-08-5.71406E-08 2.65682E-16-3.47422E-16-3.13736E-16-5.33537E-17
 -1        63-5.71406E-08-5.71406E-08 9.28194E-17-3.06680E-17-5.56545E-16-7.01428E-17
 -1        64-5.71406E-08-5.71406E-08-2.05878E-16 1.64534E-16-6.95851E-17 5.87459E-17
 -1        65-5.71406E-08-5.71406E-08 4.00818E-16-2.92026E-16 1.61176E-17-9.77049E-17
 -1        66-8.57109E-08-8.57109E-08-1.23612E-15 3.51461E-16 1.27941E-18 7.08712E-17
 -1        67-1.71422E-07-1.71422E-07-4.38855E-15 2.55329E-16-1.06213E-15 7.22125E-17
 -1        68-8.57108E-08-8.57108E-08 9.86175E-16 8.29664E-17 8.90528E-17 4.12027E-17
 -1        69-8.57109E-08-8.57109E-08 1.92151E-16-4.96316E-16 5.18589E-16-1.51863E-16
 -1        70-8.57109E-08-8.57109E-08-3.68456E-17-1.10283E-16-3.54332E-16-4.23699E-17
 -1        71-8.57109E-08-8.57108E-08 4.88457E-16-1.18048E-15-7.00538E-16-1.00156E-16
 -1        72-1.71422E-07-1.71422E-07-8.31791E-16 5.27297E-16 9.11392E-16-3.10695E-17
 -3
    1PSTEP                         3           1           1          
  100CL  101 1.00000E-03          72                     0    1           1
 -4  TOSTRAIN    6    1
 -5  EXX         1    4    1    1
 -5  EYY         1    4    2    2
 -5  EZZ         1    4    3    3
 -5  EXY         1    4    1    2
 -5  EYZ         1    4    2    3
 -5  EZX         1    4    3    1
 -1         1-5.71406E-13-5.71406E-13 4.89776E-13-3.21451E-30-2.83384E-29-7.79079E-30
 -1         2-2.85703E-13-2.85703E-13 2.44888E-13-3.20574E-30 2.79644E-29 1.17816E-28
 -1         3-2.85703E-13-2.85703E-13 2.44888E-13 8.79369E-22 6.80905E-28 1.70913E-22
 -1         4-2.85703E-13-2.85703E-13 2.44888E-13-1.91308E-21 5.70518E-28-1.17487E-21
 -1         5-2.85703E-13-2.85703E-13 2.44888E-13-1.98365E-21-2.74854E-27 5.92434E-21
 -1         6-5.71406E-13-5.71406E-13 4.89776E-13 4.64221E-21-2.94608E-27-8.63077E-21
 -1         7-2.85703E-13-2.85703E-13 2.44888E-13 9.06477E-30 4.62388E-28 6.50867E-30
 -1         8-1.90469E-13-1.90469E-13 1.63259E-13 4.97752E-30 2.98483E-28 3.34160E-29
 -1         9-1.90469E-13-1.90469E-13 1.63259E-13 9.23639E-23-2.49523E-22 1.92322E-21
 -1        10-1.90469E-13-1.90469E-13 1.63259E-13-5.81075E-22 1.33001E-22 4.80715E-22
 -1        11-1.90469E-13-1.90469E-13 1.63259E-13-1.18532E-21-4.47320E-22-3.59836E-22
 -1        12-2.85703E-13-2.85703E-13 2.44888E-13-5.72756E-22 4.21723E-22-8.93382E-22
 -1        13-2.85703E-13-2.85703E-13 2.44888E-13-8.74879E-22 1.33521E-21-6.92034E-29
 -1        14-1.90469E-13-1.90469E-13 1.63259E-13-5.29699E-22-1.93769E-22-7.86218E-25
 -1        15-1.90469E-13-1.90469E-13 1.63259E-13-6.47409E-22-2.40441E-21-8.99031E-22
 -1        16-1.90469E-13-1.90469E-13 1.63259E-13 5.68583E-22 1.39257E-21-5.51409E-22
 -1        17-1.90469E-13-1.90469E-13 1.63259E-13 1.43221E-21-1.39641E-23-4.94799E-22
 -1        18-2.85703E-13-2.85703E-13 2.44888E-13 1.63103E-21 2.24768E-21-7.37519E-21
 -1        19-2.85703E-13-2.85703E-13 2.44888E-13-8.65888E-22-1.97710E-21 5.46953E-28
 -1        20-1.90469E-13-1.90469E-13 1.63259E-13-5.23705E-22 3.46076E-21-5.77507E-23
 -1        21-1.90469E-13-1.90469E-13 1.63259E-13-4.54956E-23 2.08748E-22 6.69980E-22
 -1        22-1.90469E-13-1.90469E-13 1.63259E-13 1.73864E-21 1.78198E-22-8.33514E-22
 -1        23-1.90469E-13-1.90469E-13 1.63259E-13 2.59042E-21-1.71342E-21-2.77289E-21
 -1        24-2.85703E-13-2.85703E-13 2.44888E-13 1.44228E-22 4.57276E-22 7.57857E-21
 -1        25-2.85703E-13-2.85703E-13 2.44888E-13 5.67563E-23 2.43281E-21 7.17850E-28
 -1        26-1.90469E-13-1.90469E-13 1.63259E-13-1.84526E-22 2.22554E-21-6.03505E-24
 -1        27-1.90469E-13-1.90469E-13 1.63259E-13 1.53155E-21 1.43685E-21 8.22115E-22
 -1        28-1.90469E-13-1.90469E-13 1.63259E-13 2.38356E-21 1.60780E-22 3.46062E-24
 -1        29-1.90469E-13-1.90469E-13 1.63259E-13 7.82447E-22-4.44228E-21 1.38080E-21
 -1        30-2.85703E-13-2.85703E-13 2.44888E-13 1.21976E-21 3.22623E-21-2.48709E-21
 -1        31-5.71406E-13-5.71406E-13 4.89776E-13-3.03475E-23 4.17151E-21 6.70490E-27
 -1        32-2.85703E-13-2.85703E-13 2.44888E-13-3.48719E-22-2.30890E-21 3.15524E-23
 -1        33-2.85703E-13-2.85703E-13 2.44888E-13-1.81899E-21-1.61548E-21 1.69163E-21
 -1        34-2.85703E-13-2.85703E-13 2.44888E-13 3.11232E-22 1.94910E-21-6.05507E-22
 -1        35-2.85703E-13-2.85703E-13 2.44888E-13 1.90060E-21-6.74036E-22-2.71961E-21
 -1        36-5.71406E-13-5.71406E-13 4.89776E-13-2.30570E-21 2.08671E-23 3.60540E-21
 -1        37-5.71406E-13-5.71406E-13 4.89776E-13 4.00186E-30-3.77978E-28-1.53891E-28
 -1        38-2.85703E-13-2.85703E-13 2.44888E-13-1.14303E-29-1.98919E-28 4.47662E-29
 -1        39-2.85703E-13-2.85703E-13 2.44888E-13-7.36640E-22 3.56745E-22 1.61725E-21
 -1        40-2.85703E-13-2.85703E-13 2.44888E-13 2.38243E-21-2.56013E-22-7.00569E-23
 -1        41-2.85703E-13-2.85703E-13 2.44888E-13-4.79982E-21 6.11691E-22-1.93890E-21
 -1        42-5.71406E-13-5.71406E-13 4.89776E-13-2.10708E-21-2.26091E-22 4.97081E-22
 -1        43-2.85703E-13-2.85703E-13 2.44888E-13-7.01563E-29 2.87569E-28-5.70752E-29
 -1        44-1.90469E-13-1.90469E-13 1.63259E-13-5.57250E-29 1.47227E-28-8.97318E-30
 -1        45-1.90469E-13-1.90469E-13 1.63259E-13 2.09362E-22-1.16935E-23-1.87797E-21
 -1        46-1.90469E-13-1.90469E-13 1.63259E-13 3.59407E-22-3.76744E-23 1.03644E-21
 -1        47-1.90469E-13-1.90469E-13 1.63259E-13-3.05049E-21-3.95241E-23-1.61198E-21
 -1        48-2.85703E-13-2.85703E-13 2.44888E-13 3.22299E-21 3.08678E-22 1.95344E-21
 -1        49-2.85703E-13-2.85703E-13 2.44888E-13 6.01207E-22-7.97376E-22-1.00193E-22
 -1        50-1.90469E-13-1.90469E-13 1.63259E-13 3.74607E-22 6.08888E-22-6.75819E-23
 -1        51-1.90469E-13-1.90469E-13 1.63259E-13 3.11404E-21 1.07143E-21-1.86176E-21
 -1        52-1.90469E-13-1.90469E-13 1.63259E-13 2.67474E-21 1.94642E-22 2.88153E-21
 -1        53-1.90469E-13-1.90469E-13 1.63259E-13 2.48015E-21-2.14328E-23 2.14322E-21
 -1        54-2.85703E-13-2.85703E-13 2.44888E-13-9.74075E-22-3.58508E-21 1.92978E-21
 -1        55-2.85703E-13-2.85703E-13 2.44888E-13 1.33748E-22 8.72825E-22 1.59666E-22
 -1        56-1.90469E-13-1.90469E-13 1.63259E-13 6.29680E-23-1.17033E-22 4.86927E-23
 -1        57-1.90469E-13-1.90469E-13 1.63259E-13 4.89867E-23-3.70666E-23 8.03545E-23
 -1        58-1.90469E-13-1.90469E-13 1.63259E-13-5.55380E-24-1.56778E-22-1.79546E-21
 -1        59-1.90469E-13-1.90469E-13 1.63259E-13-1.05212E-21-5.03829E-23 2.64337E-21
 -1        60-2.85703E-13-2.85703E-13 2.44888E-13 4.25720E-21 1.80656E-21-4.25610E-21
 -1        61-2.85703E-13-2.85703E-13 2.44888E-13-2.94936E-21-4.99032E-22-4.86374E-22
 -1        62-1.90469E-13-1.90469E-13 1.63259E-13-2.15071E-21-1.94218E-21-3.30285E-22
 -1        63-1.90469E-13-1.90469E-13 1.63259E-13-1.89850E-22-3.44528E-21-4.34218E-22
 -1        64-1.90469E-13-1.90469E-13 1.63259E-13 1.01854E-21-4.30765E-22 3.63665E-22
 -1        65-1.90469E-13-1.90469E-13 1.63259E-13-1.80778E-21 9.97758E-23-6.04840E-22
 -1        66-2.85703E-13-2.85703E-13 2.44888E-13 2.17571E-21 7.92018E-24 4.38726E-22
 -1        67-5.71406E-13-5.71406E-13 4.89776E-13 1.58061E-21-6.57507E-21 4.47030E-22
 -1        68-2.85703E-13-2.85703E-13 2.44888E-13 5.13602E-22 5.51279E-22 2.55064E-22
 -1        69-2.85703E-13-2.85703E-13 2.44888E-13-3.07243E-21 3.21031E-21-9.40107E-22
 -1        70-2.85703E-13-2.85703E-13 2.44888E-13-6.82706E-22-2.19348E-21-2.62290E-22
 -1        71-2.85703E-13-2.85703E-13 2.44888E-13-7.30770E-21-4.33666E-21-6.20015E-22
 -1        72-5.71406E-13-5.71406E-13 4.89776E-13 3.26422E-21 5.64195E-21-1.92335E-22
 -3
    1PSTEP                         4           2           1          
  100CL  102 2.00000E-03          72                     0    2           1
 -4  DISP        4    1
 -5  D1          1    2    1    0
 -5  D2          1    2    2    0
 -5  D3          1    2    3    0
 -5  ALL         1    2    0    0    1ALL
 -1         1 0.00000E+00 0.00000E+00 0.00000E+00
 -1         2-5.71429E-10 0.00000E+00 0.00000E+00
 -1         3-3.00000E-02 0.00000E+00 0.00000E+00
 -1         4-3.00000E-02 0.00000E+00 0.00000E+00
 -1         5-6.00000E-02 0.00000E+00 0.00000E+00
 -1         6-6.00000E-02 0.00000E+00 0.00000E+00
 -1         7 0.00000E+00-5.71429E-10 0.00000E+00
 -1         8-5.71429E-10-5.71429E-10 0.00000E+00
 -1         9-3.00000E-02-5.71429E-10 0.00000E+00
 -1        10-3.00000E-02-5.71429E-10 0.00000E+00
 -1        11-6.00000E-02-5.71429E-10 0.00000E+00
 -1        12-6.00000E-02-5.71429E-10 0.00000E+00
 -1        13 0.00000E+00-3.00000E-02 0.00000E+00
 -1        14-5.71429E-10-3.00000E-02 0.00000E+00
 -1        15-3.00000E-02-3.00000E-02 0.00000E+00
 -1        16-3.00000E-02-3.00000E-02 0.00000E+00
 -1        17-6.00000E-02-3.00000E-02 0.00000E+00
 -1        18-6.00000E-02-3.00000E-02 0.00000E+00
 -1        19 0.00000E+00-3.00000E-02 0.00000E+00
 -1        20-5.71429E-10-3.00000E-02 0.00000E+00
 -1        21-3.00000E-02-3.00000E-02 0.00000E+00
 -1        22-3.00000E-02-3.00000E-02 0.00000E+00
 -1        23-6.00000E-02-3.00000E-02 0.00000E+00
 -1        24-6.00000E-02-3.00000E-02 0.00000E+00
 -1        25 0.00000E+00-6.00000E-02 0.00000E+00
 -1        26-5.71429E-10-6.00000E-02 0.00000E+00
 -1        27-3.00000E-02-6.00000E-02 0.00000E+00
 -1        28-3.00000E-02-6.00000E-02 0.00000E+00
 -1        29-6.00000E-02-6.00000E-02 0.00000E+00
 -1        30-6.00000E-02-6.00000E-02 0.00000E+00
 -1        31 0.00000E+00-6.00000E-02 0.00000E+00
 -1        32-5.71429E-10-6.00000E-02 0.00000E+00
 -1        33-3.00000E-02-6.00000E-02 0.00000E+00
 -1        34-3.00000E-02-6.00000E-02 0.00000E+00
 -1        35-6.00000E-02-6.00000E-02 0.00000E+00
 -1        36-6.00000E-02-6.00000E-02 0.00000E+00
 -1        37 0.00000E+00 0.00000E+00 6.85714E-10
 -1        38-5.71429E-10 0.00000E+00 6.85714E-10
 -1        39-3.00000E-02 0.00000E+00 6.85714E-10
 -1        40-3.00000E-02 0.00000E+00 6.85714E-10
 -1        41-6.00000E-02 0.00000E+00 6.85714E-10
 -1        42-6.00000E-02 0.00000E+00 6.85714E-10
 -1        43 0.00000E+00-5.71429E-10 6.85714E-10
 -1        44-5.71429E-10-5.71429E-10 6.85714E-10
 -1        45-3.00000E-02-5.71429E-10 6.85714E-10
 -1        46-3.00000E-02-5.71429E-10 6.85714E-10
 -1        47-6.00000E-02-5.71429E-10 6.85714E-10
 -1        48-6.00000E-02-5.71429E-10 6.85714E-10
 -1        49 0.00000E+00-3.00000E-02 6.85714E-10
 -1        50-5.71429E-10-3.00000E-02 6.85714E-10
 -1        51-3.00000E-02-3.00000E-02 6.85714E-10
 -1        52-3.00000E-02-3.00000E-02 6.85714E-10
 -1        53-6.00000E-02-3.00000E-02 6.85714E-10
 -1        54-6.00000E-02-3.00000E-02 6.85714E-10
 -1        55 0.00000E+00-3.00000E-02 6.85714E-10
 -1        56-5.71429E-10-3.00000E-02 6.85714E-10
 -1        57-3.00000E-02-3.00000E-02 6.85714E-10
 -1        58-3.00000E-02-3.00000E-02 6.85714E-10
 -1        59-6.00000E-02-3.00000E-02 6.85714E-10
 -1        60-6.00000E-02-3.00000E-02 6.85714E-10
 -1        61 0.00000E+00-6.00000E-02 6.85714E-10
 -1        62-5.71429E-10-6.00000E-02 6.85714E-10
 -1        63-3.00000E-02-6.00000E-02 6.85714E-10
 -1        64-3.00000E-02-6.00000E-02 6.85714E-10
 -1        65-6.00000E-02-6.00000E-02 6.85714E-10
 -1        66-6.00000E-02-6.00000E-02 6.85714E-10
 -1        67 0.00000E+00-6.00000E-02 6.85714E-10
 -1        68-5.71429E-10-6.00000E-02 6.85714E-10
 -1        69-3.00000E-02-6.00000E-02 6.85714E-10
 -1        70-3.00000E-02-6.00000E-02 6.85714E-10
 -1        71-6.00000E-02-6.00000E-02 6.85714E-10
 -1        72-6.00000E-02-6.00000E-02 6.85714E-10
 -3
    1PSTEP                         5           2           1          
  100CL  102 2.00000E-03          72                     0    2           1
 -4  STRESS      6    1
 -5  SXX         1    4    1    1
 -5  SYY         1    4    2    2
 -5  SZZ         1    4    3    3
 -5  SXY         1    4    1    2
 -5  SYZ         1    4    2    3
 -5  SZX         1    4    3    1
 -1         1-3.42843E-07-3.42843E-07 7.49116E-23-1.27835E-24 3.16796E-24 7.14093E-24
 -1         2-1.71422E-07-1.71422E-07-7.71594E-23 3.14469E-23-5.91180E-24 2.23904E-23
 -1         3-1.71422E-07-1.71422E-07-3.65561E-16 1.17661E-16 5.86273E-23-1.94621E-16
 -1         4-1.71422E-07-1.71422E-07-2.27026E-16 3.48850E-17-4.22777E-22 9.47372E-17
 -1         5-1.71422E-07-1.71422E-07-1.82165E-16-6.40871E-16 7.33838E-23 1.91402E-15