
 displacements (vx,vy,vz) for set NALL and time  0.1000000E-02

         1  0.000000E+00  0.000000E+00  0.000000E+00
         2 -1.833215E-15  0.000000E+00  0.000000E+00
         3 -9.624375E-08  0.000000E+00  0.000000E+00
         4 -9.624412E-08  0.000000E+00  0.000000E+00
         5 -1.926925E-07  0.000000E+00  0.000000E+00
         6 -1.925702E-07  0.000000E+00  0.000000E+00
         7  0.000000E+00 -1.833215E-15  0.000000E+00
         8 -1.833215E-15 -1.833215E-15  0.000000E+00
         9 -9.624375E-08  1.229886E-12  0.000000E+00
        10 -9.624412E-08  1.229875E-12  0.000000E+00
        11 -1.926917E-07 -4.067657E-10  0.000000E+00
        12 -1.925695E-07 -4.083223E-10  0.000000E+00
        13  0.000000E+00 -9.624375E-08  0.000000E+00
        14  1.229886E-12 -9.624375E-08  0.000000E+00
        15  4.516910E-05  4.516910E-05  0.000000E+00
        16  4.516910E-05  4.516910E-05  0.000000E+00
        17  6.410732E-05 -1.496222E-02  0.000000E+00
        18  6.410744E-05 -1.499229E-02  0.000000E+00
        19  0.000000E+00 -9.624412E-08  0.000000E+00
        20  1.229875E-12 -9.624412E-08  0.000000E+00
        21  4.516910E-05  4.516910E-05  0.000000E+00
        22  4.516910E-05  4.516910E-05  0.000000E+00
        23  9.418350E-05 -1.496222E-02  0.000000E+00
        24  9.418362E-05 -1.499230E-02  0.000000E+00
        25  0.000000E+00 -1.926925E-07  0.000000E+00
        26 -4.067657E-10 -1.926917E-07  0.000000E+00
        27 -1.496222E-02  6.410732E-05  0.000000E+00
        28 -1.496222E-02  9.418350E-05  0.000000E+00
        29 -3.000000E-02 -3.000000E-02  0.000000E+00
        30 -3.000000E-02 -3.000000E-02  0.000000E+00
        31  0.000000E+00 -1.925702E-07  0.000000E+00
        32 -4.083223E-10 -1.925695E-07  0.000000E+00
        33 -1.499229E-02  6.410744E-05  0.000000E+00
        34 -1.499230E-02  9.418362E-05  0.000000E+00
        35 -3.000000E-02 -3.000000E-02  0.000000E+00
        36 -3.000000E-02 -3.000000E-02  0.000000E+00
        37  0.000000E+00  0.000000E+00  2.199858E-15
        38 -1.833215E-15  0.000000E+00  2.199858E-15
        39 -9.624375E-08  0.000000E+00 -5.151204E-13
        40 -9.624412E-08  0.000000E+00 -5.151163E-13
        41 -1.926929E-07  0.000000E+00  1.708699E-10
        42 -1.925707E-07  0.000000E+00  1.714685E-10
        43  0.000000E+00 -1.833215E-15  2.199858E-15
        44 -1.833215E-15 -1.833215E-15  2.199858E-15
        45 -9.624375E-08  1.229886E-12 -5.151204E-13
        46 -9.624412E-08  1.229875E-12 -5.151163E-13
        47 -1.926921E-07 -4.067657E-10  1.708699E-10
        48 -1.925699E-07 -4.083223E-10  1.714685E-10
        49  0.000000E+00 -9.624375E-08 -5.151204E-13
        50  1.229886E-12 -9.624375E-08 -5.151204E-13
        51  4.516910E-05  4.516910E-05 -7.331108E-13
        52  4.516910E-05  4.516910E-05 -1.032959E-12
        53  6.410732E-05 -1.496222E-02  1.710601E-10
        54  6.410744E-05 -1.499229E-02  1.710606E-10
        55  0.000000E+00 -9.624412E-08 -5.151163E-13
        56  1.229875E-12 -9.624412E-08 -5.151163E-13
        57  4.516910E-05  4.516910E-05 -1.032959E-12
        58  4.516910E-05  4.516910E-05 -1.332808E-12
        59  9.418350E-05 -1.496222E-02  1.707607E-10
        60  9.418362E-05 -1.499230E-02  1.707612E-10
        61  0.000000E+00 -1.926929E-07  1.708699E-10
        62 -4.067657E-10 -1.926922E-07  1.708699E-10
        63 -1.496222E-02  6.410732E-05  1.710601E-10
        64 -1.496222E-02  9.418350E-05  1.707607E-10
        65 -3.000000E-02 -3.000000E-02  4.595229E-19
        66 -3.000000E-02 -3.000000E-02 -1.201334E-18
        67  0.000000E+00 -1.925707E-07  1.714685E-10
        68 -4.083223E-10 -1.925699E-07  1.714685E-10
        69 -1.499229E-02  6.410744E-05  1.710606E-10
        70 -1.499230E-02  9.418362E-05  1.707612E-10
        71 -3.000000E-02 -3.000000E-02 -1.065491E-18
        72 -3.000000E-02 -3.000000E-02  1.131436E-18

 stresses (elem, integ.pnt.,sxx,syy,szz,sxy,sxz,syz) for set EALL and time  0.1000000E-02

         1   1 -1.099929E-12 -1.099929E-12 -2.001086E-23  1.717830E-23 -2.525039E-24 -2.519889E-24
         1   2 -1.099929E-12 -1.099929E-12  1.128861E-23  4.065182E-23 -7.868291E-24 -2.522517E-24
         1   3 -1.099929E-12 -1.099929E-12  1.126620E-23  4.063673E-23 -2.523474E-24 -7.831173E-24
         1   4 -1.099929E-12 -1.099929E-12  4.257163E-23  6.411026E-23 -7.864703E-24 -7.843246E-24
         1   5 -1.099929E-12 -1.099929E-12 -4.238543E-23  1.717448E-23 -4.080301E-24 -4.093095E-24
         1   6 -1.099929E-12 -1.099929E-12 -1.110585E-23  4.065082E-23 -9.423552E-24 -4.093412E-24
         1   7 -1.099929E-12 -1.099929E-12 -1.110403E-23  4.061968E-23 -4.076451E-24 -9.404364E-24
         1   8 -1.099929E-12 -1.099929E-12  2.018131E-23  6.409602E-23 -9.417680E-24 -9.414141E-24
         2   1 -1.100559E-12  5.162210E-10  2.642955E-16  1.666195E-15 -1.933958E-16  8.901530E-20
         2   2 -1.101637E-12  5.162179E-10 -2.646742E-16  1.668170E-15 -1.946067E-16  2.878890E-20
         2   3 -1.100553E-12  5.162210E-10  2.649022E-16  6.731367E-16 -1.932871E-16  1.274374E-18
         2   4 -1.101631E-12  5.162179E-10 -2.640154E-16  6.751126E-16 -1.944999E-16  1.028721E-18
         2   5 -1.100563E-12  5.162210E-10  2.642365E-16  1.666242E-15  1.908511E-16 -8.531487E-19
         2   6 -1.101641E-12  5.162179E-10 -2.651226E-16  1.668217E-15  1.896393E-16 -8.924904E-19
         2   7 -1.100557E-12  5.162210E-10  2.648453E-16  6.729241E-16  1.909827E-16  3.322096E-19
         2   8 -1.101635E-12  5.162179E-10 -2.644616E-16  6.748981E-16  1.897681E-16  1.074417E-19
         3   1  7.841547E-11 -1.709445E-07  3.908462E-11  7.203438E-11 -2.791742E-11  2.523347E-17
         3   2 -7.951737E-11 -1.713928E-07 -3.908416E-11  7.203393E-11 -2.791741E-11  2.517556E-17
         3   3  7.841401E-11 -1.709445E-07  3.908420E-11 -7.313620E-11 -2.791742E-11 -4.067718E-18
         3   4 -7.951883E-11 -1.713928E-07 -3.908458E-11 -7.313665E-11 -2.791741E-11 -4.310590E-18
         3   5  7.841546E-11 -1.709445E-07  3.908458E-11  7.203438E-11  2.791742E-11  1.234738E-16
         3   6 -7.951738E-11 -1.713928E-07 -3.908420E-11  7.203393E-11  2.791743E-11  1.234426E-16
         3   7  7.841399E-11 -1.709445E-07  3.908416E-11 -7.313620E-11  2.791742E-11  9.417260E-17
         3   8 -7.951884E-11 -1.713928E-07 -3.908462E-11 -7.313665E-11  2.791743E-11  9.395648E-17
         4   1  5.162210E-10 -1.100559E-12  2.646610E-16  1.666099E-15 -7.828660E-21 -1.928201E-16
         4   2  5.162210E-10 -1.100553E-12  2.654146E-16  6.730462E-16  8.890233E-19 -1.931110E-16
         4   3  5.162179E-10 -1.101638E-12 -2.654012E-16  1.668129E-15  1.282367E-19 -1.937753E-16
         4   4  5.162179E-10 -1.101632E-12 -2.644722E-16  6.750760E-16  1.326661E-18 -1.943452E-16
         4   5  5.162210E-10 -1.100562E-12  2.645346E-16  1.665806E-15 -9.260689E-19  1.909898E-16
         4   6  5.162210E-10 -1.100558E-12  2.647052E-16  6.731755E-16 -2.921696E-20  1.907633E-16
         4   7  5.162179E-10 -1.101640E-12 -2.648881E-16  1.667447E-15 -7.198385E-19  1.900336E-16
         4   8  5.162179E-10 -1.101635E-12 -2.645483E-16  6.748165E-16  4.785860E-19  1.895318E-16
         5   1  3.646688E-10  3.646688E-10 -3.915120E-11  1.283559E-11  1.398257E-11  1.398257E-11
         5   2  4.437702E-10  5.891890E-10  5.351997E-20  8.554496E-11  1.398257E-11  1.398257E-11
         5   3  5.891890E-10  4.437702E-10  6.188028E-19  8.554496E-11  1.398257E-11  1.398257E-11
         5   4  6.682904E-10  6.682904E-10  3.915120E-11  1.582543E-10  1.398257E-11  1.398257E-11
         5   5  3.646688E-10  3.646688E-10 -3.915120E-11  1.283559E-11 -1.398257E-11 -1.398257E-11
         5   6  4.437702E-10  5.891890E-10 -4.475605E-19  8.554496E-11 -1.398257E-11 -1.398257E-11
         5   7  5.891890E-10  4.437702E-10  2.179385E-19  8.554496E-11 -1.398257E-11 -1.398257E-11
         5   8  6.682904E-10  6.682904E-10  3.915120E-11  1.582543E-10 -1.398257E-11 -1.398257E-11
         6   1  1.462111E-10 -1.712082E-07 -1.951596E-11  1.352206E-10 -2.108428E-14  1.396104E-11
         6   2  1.460910E-10 -1.712086E-07 -1.957582E-11  2.078190E-10 -2.105054E-14  1.396101E-11
         6   3  3.703887E-10 -1.711292E-07  1.957549E-11  1.351103E-10 -2.118520E-14  1.396135E-11
         6   4  3.702690E-10 -1.711296E-07  1.951620E-11  2.077088E-10 -2.117745E-14  1.396125E-11
         6   5  1.462115E-10 -1.712082E-07 -1.951568E-11  1.352205E-10  2.110884E-14 -1.396144E-11
         6   6  1.460915E-10 -1.712086E-07 -1.957541E-11  2.078189E-10  2.114058E-14 -1.396128E-11
         6   7  3.703890E-10 -1.711292E-07  1.957571E-11  1.351102E-10  2.112302E-14 -1.396100E-11
         6   8  3.702689E-10 -1.711296E-07  1.951607E-11  2.077086E-10  2.113077E-14 -1.396094E-11
         7   1 -1.709445E-07  7.841547E-11  3.908462E-11  7.203438E-11  2.522648E-17 -2.791742E-11
         7   2 -1.709445E-07  7.841401E-11  3.908420E-11 -7.313620E-11 -4.251297E-18 -2.791742E-11
         7   3 -1.713928E-07 -7.951737E-11 -3.908416E-11  7.203393E-11  2.515279E-17 -2.791741E-11
         7   4 -1.713928E-07 -7.951883E-11 -3.908458E-11 -7.313665E-11 -4.440190E-18 -2.791741E-11
         7   5 -1.709445E-07  7.841546E-11  3.908458E-11  7.203438E-11  1.236243E-16  2.791742E-11
         7   6 -1.709445E-07  7.841399E-11  3.908416E-11 -7.313620E-11  9.414651E-17  2.791742E-11
         7   7 -1.713928E-07 -7.951738E-11 -3.908420E-11  7.203393E-11  1.234645E-16  2.791743E-11
         7   8 -1.713928E-07 -7.951884E-11 -3.908462E-11 -7.313665E-11  9.387150E-17  2.791743E-11
         8   1 -1.712082E-07  1.462116E-10 -1.951567E-11  1.352210E-10  1.396119E-11 -2.117016E-14
         8   2 -1.711292E-07  3.703890E-10  1.957578E-11  1.351106E-10  1.396112E-11 -2.112550E-14
         8   3 -1.712086E-07  1.460911E-10 -1.957574E-11  2.078193E-10  1.396095E-11 -2.117444E-14
         8   4 -1.711296E-07  3.702685E-10  1.951570E-11  2.077091E-10  1.396146E-11 -2.114541E-14
         8   5 -1.712082E-07  1.462108E-10 -1.951652E-11  1.352202E-10 -1.396132E-11  2.113944E-14
         8   6 -1.711292E-07  3.703881E-10  1.957489E-11  1.351105E-10 -1.396115E-11  2.118568E-14
         8   7 -1.712086E-07  1.460914E-10 -1.957544E-11  2.078186E-10 -1.396122E-11  2.113543E-14
         8   8 -1.711296E-07  3.702687E-10  1.951597E-11  2.077090E-10 -1.396122E-11  2.116363E-14
         9   1 -7.173894E-18 -7.173894E-18 -1.673909E-17  1.186666E-36 -2.341093E-16 -2.294720E-16
         9   2  3.188128E-16  8.661264E-16  1.965828E-16  2.736568E-16  4.500327E-16  5.307033E-16
         9   3 -7.809819E-17 -7.809819E-17 -1.822291E-16  7.247905E-36 -5.001470E-16 -5.715430E-16
         9   4  1.625890E-16  2.994174E-16  2.425460E-16  6.841420E-17 -4.317328E-16 -4.270955E-16
         9   5 -7.173894E-18 -7.173894E-18 -1.673909E-17  1.303599E-36  1.659248E-16  1.832314E-16
         9   6 -2.969150E-16 -5.705718E-16 -4.191450E-16 -1.368284E-16  1.659248E-16  4.669915E-16
         9   7 -7.809819E-17 -7.809819E-17 -1.822291E-16  1.367265E-36 -9.762866E-17 -3.640822E-16
         9   8  2.652103E-16  5.388671E-16  3.451673E-16  1.368284E-16 -2.344571E-16 -2.171505E-16

 strains (elem, integ.pnt.,exx,eyy,ezz,exy,exz,eyz) forset EALL and time  0.1000000E-02

         1   1 -3.666429E-18 -3.666429E-18  3.142654E-18  1.063418E-28 -1.563120E-29 -1.559931E-29
         1   2 -3.666429E-18 -3.666429E-18  3.142654E-18  2.516541E-28 -4.870847E-29 -1.561558E-29
         1   3 -3.666429E-18 -3.666429E-18  3.142654E-18  2.515607E-28 -1.562151E-29 -4.847869E-29
         1   4 -3.666429E-18 -3.666429E-18  3.142654E-18  3.968730E-28 -4.868626E-29 -4.855343E-29
         1   5 -3.666429E-18 -3.666429E-18  3.142654E-18  1.063182E-28 -2.525900E-29 -2.533821E-29
         1   6 -3.666429E-18 -3.666429E-18  3.142654E-18  2.516479E-28 -5.833627E-29 -2.534017E-29
         1   7 -3.666429E-18 -3.666429E-18  3.142654E-18  2.514552E-28 -2.523517E-29 -5.821749E-29
         1   8 -3.666429E-18 -3.666429E-18  3.142654E-18  3.967849E-28 -5.829992E-29 -5.827801E-29
         2   1 -7.426997E-16  2.459767E-15 -7.358851E-16  1.031454E-20 -1.197212E-21  5.510471E-25
         2   2 -7.426997E-16  2.459755E-15 -7.358817E-16  1.032677E-20 -1.204708E-21  1.782170E-25
         2   3 -7.426997E-16  2.459767E-15 -7.358851E-16  4.167037E-21 -1.196539E-21  7.888979E-24
         2   4 -7.426997E-16  2.459755E-15 -7.358817E-16  4.179268E-21 -1.204047E-21  6.368272E-24
         2   5 -7.426997E-16  2.459767E-15 -7.358851E-16  1.031483E-20  1.181459E-21 -5.281397E-24
         2   6 -7.426997E-16  2.459755E-15 -7.358817E-16  1.032706E-20  1.173957E-21 -5.524940E-24
         2   7 -7.426997E-16  2.459767E-15 -7.358851E-16  4.165720E-21  1.182274E-21  2.056536E-24
         2   8 -7.426997E-16  2.459755E-15 -7.358817E-16  4.177941E-21  1.174755E-21  6.651150E-25
         3   1  2.445240E-13 -8.141893E-13  2.442805E-13  4.459271E-16 -1.728221E-16  1.562072E-22
         3   2  2.445240E-13 -8.159866E-13  2.447743E-13  4.459244E-16 -1.728221E-16  1.558487E-22
         3   3  2.445240E-13 -8.141893E-13  2.442805E-13 -4.527479E-16 -1.728221E-16 -2.518111E-23
         3   4  2.445240E-13 -8.159866E-13  2.447743E-13 -4.527507E-16 -1.728221E-16 -2.668460E-23
         3   5  2.445240E-13 -8.141893E-13  2.442805E-13  4.459271E-16  1.728221E-16  7.643616E-22
         3   6  2.445240E-13 -8.159867E-13  2.447743E-13  4.459244E-16  1.728222E-16  7.641687E-22
         3   7  2.445240E-13 -8.141893E-13  2.442805E-13 -4.527479E-16  1.728221E-16  5.829733E-22
         3   8  2.445240E-13 -8.159867E-13  2.447743E-13 -4.527507E-16  1.728222E-16  5.816353E-22
         4   1  2.459767E-15 -7.426997E-16 -7.358851E-16  1.031395E-20 -4.846313E-26 -1.193648E-21
         4   2  2.459767E-15 -7.426997E-16 -7.358851E-16  4.166477E-21  5.503477E-24 -1.195449E-21
         4   3  2.459755E-15 -7.426997E-16 -7.358817E-16  1.032651E-20  7.938463E-25 -1.199561E-21
         4   4  2.459755E-15 -7.426997E-16 -7.358817E-16  4.179042E-21  8.212664E-24 -1.203089E-21
         4   5  2.459767E-15 -7.426997E-16 -7.358851E-16  1.031213E-20 -5.732807E-24  1.182318E-21
         4   6  2.459767E-15 -7.426997E-16 -7.358851E-16  4.167277E-21 -1.808669E-25  1.180916E-21
         4   7  2.459755E-15 -7.426997E-16 -7.358817E-16  1.032229E-20 -4.456143E-24  1.176398E-21
         4   8  2.459755E-15 -7.426997E-16 -7.358817E-16  4.177436E-21  2.962675E-24  1.173292E-21
         5   1  1.271493E-15  1.271493E-15 -1.228345E-15  7.945842E-17  8.655876E-17  8.655876E-17
         5   2  1.271493E-15  2.171704E-15 -1.475656E-15  5.295640E-16  8.655876E-17  8.655876E-17
         5   3  2.171704E-15  1.271493E-15 -1.475656E-15  5.295640E-16  8.655876E-17  8.655876E-17
         5   4  2.171704E-15  2.171704E-15 -1.722967E-15  9.796697E-16  8.655876E-17  8.655876E-17
         5   5  1.271493E-15  1.271493E-15 -1.228345E-15  7.945842E-17 -8.655877E-17 -8.655877E-17
         5   6  1.271493E-15  2.171704E-15 -1.475656E-15  5.295640E-16 -8.655878E-17 -8.655877E-17
         5   7  2.171704E-15  1.271493E-15 -1.475656E-15  5.295640E-16 -8.655878E-17 -8.655878E-17
         5   8  2.171704E-15  2.171704E-15 -1.722967E-15  9.796697E-16 -8.655878E-17 -8.655878E-17
         6   1  2.453073E-13 -8.154582E-13  2.442814E-13  8.371438E-16 -1.305269E-19  8.642547E-17
         6   2  2.453073E-13 -8.154596E-13  2.442817E-13  1.286563E-15 -1.303181E-19  8.642531E-17
         6   3  2.462061E-13 -8.154582E-13  2.440344E-13  8.364612E-16 -1.311517E-19  8.642738E-17
         6   4  2.462061E-13 -8.154596E-13  2.440348E-13  1.285880E-15 -1.311037E-19  8.642680E-17
         6   5  2.453073E-13 -8.154582E-13  2.442814E-13  8.371431E-16  1.306790E-19 -8.642797E-17
         6   6  2.453073E-13 -8.154596E-13  2.442817E-13  1.286562E-15  1.308754E-19 -8.642699E-17
         6   7  2.462061E-13 -8.154582E-13  2.440344E-13  8.364604E-16  1.307668E-19 -8.642522E-17
         6   8  2.462061E-13 -8.154596E-13  2.440348E-13  1.285879E-15  1.308147E-19 -8.642488E-17
         7   1 -8.141893E-13  2.445240E-13  2.442805E-13  4.459271E-16  1.561639E-22 -1.728221E-16
         7   2 -8.141893E-13  2.445240E-13  2.442805E-13 -4.527479E-16 -2.631756E-23 -1.728221E-16
         7   3 -8.159866E-13  2.445240E-13  2.447743E-13  4.459244E-16  1.557078E-22 -1.728221E-16
         7   4 -8.159866E-13  2.445240E-13  2.447743E-13 -4.527507E-16 -2.748689E-23 -1.728221E-16
         7   5 -8.141893E-13  2.445240E-13  2.442805E-13  4.459271E-16  7.652932E-22  1.728221E-16
         7   6 -8.141893E-13  2.445240E-13  2.442805E-13 -4.527479E-16  5.828117E-22  1.728221E-16
         7   7 -8.159867E-13  2.445240E-13  2.447743E-13  4.459244E-16  7.643039E-22  1.728222E-16
         7   8 -8.159867E-13  2.445240E-13  2.447743E-13 -4.527507E-16  5.811093E-22  1.728222E-16
         8   1 -8.154582E-13  2.453073E-13  2.442814E-13  8.371460E-16  8.642641E-17 -1.310586E-19
         8   2 -8.154582E-13  2.462061E-13  2.440344E-13  8.364630E-16  8.642599E-17 -1.307821E-19
         8   3 -8.154596E-13  2.453073E-13  2.442817E-13  1.286564E-15  8.642493E-17 -1.310851E-19
         8   4 -8.154596E-13  2.462061E-13  2.440348E-13  1.285882E-15  8.642810E-17 -1.309054E-19
         8   5 -8.154582E-13  2.453073E-13  2.442814E-13  8.371413E-16 -8.642721E-17  1.308684E-19
         8   6 -8.154582E-13  2.462061E-13  2.440344E-13  8.364624E-16 -8.642616E-17  1.311547E-19
         8   7 -8.154596E-13  2.453073E-13  2.442817E-13  1.286560E-15 -8.642658E-17  1.308436E-19
         8   8 -8.154596E-13  2.462061E-13  2.440348E-13  1.285881E-15 -8.642658E-17  1.310182E-19
         9   1  6.386642E-44  4.499500E-44 -5.921309E-23  5.360662E-44 -1.449248E-21 -1.420541E-21
         9   2  6.386642E-44  3.388132E-21 -7.566614E-22  1.694066E-21  2.785917E-21  3.285306E-21
         9   3  1.705090E-43  4.499500E-44 -6.446200E-22 -8.759024E-44 -3.096148E-21 -3.538123E-21
         9   4  1.705090E-43  8.470329E-22  4.949718E-22  4.235165E-22 -2.672632E-21 -2.643925E-21
         9   5  8.895445E-43  6.266995E-43 -5.921309E-23  7.466439E-43  1.027153E-21  1.134289E-21
         9   6  8.895445E-43 -1.694066E-21 -7.566614E-22 -8.470329E-22  1.027153E-21  2.890900E-21
         9   7  2.374883E-42  6.266995E-43 -6.446200E-22 -1.219975E-42 -6.043679E-22 -2.253842E-21
         9   8  2.374883E-42  1.694066E-21  4.949718E-22  8.470329E-22 -1.451401E-21 -1.344265E-21

 displacements (vx,vy,vz) for set NALL and time  0.2000000E-02

         1  0.000000E+00  0.000000E+00  0.000000E+00
         2 -1.476027E-14  0.000000E+00  0.000000E+00
         3 -7.749140E-07  0.000000E+00  0.000000E+00
         4 -7.749155E-07  0.000000E+00  0.000000E+00
         5 -1.553133E-06  0.000000E+00  0.000000E+00
         6 -1.552889E-06  0.000000E+00  0.000000E+00
         7  0.000000E+00 -1.476027E-14  0.000000E+00
         8 -1.476027E-14 -1.476027E-14  0.000000E+00
         9 -7.749140E-07  4.941315E-12  0.000000E+00
        10 -7.749155E-07  4.941144E-12  0.000000E+00
        11 -1.553130E-06 -8.107101E-10  0.000000E+00
        12 -1.552886E-06 -8.169318E-10  0.000000E+00
        13  0.000000E+00 -7.749140E-07  0.000000E+00
        14  4.941315E-12 -7.749140E-07  0.000000E+00
        15  1.813556E-04  1.813556E-04  0.000000E+00
        16  1.813556E-04  1.813556E-04  0.000000E+00
        17  2.578720E-04 -2.984774E-02  0.000000E+00
        18  2.578722E-04 -2.996835E-02  0.000000E+00
        19  0.000000E+00 -7.749155E-07  0.000000E+00
        20  4.941144E-12 -7.749155E-07  0.000000E+00
        21  1.813556E-04  1.813556E-04  0.000000E+00
        22  1.813556E-04  1.813556E-04  0.000000E+00
        23  3.784811E-04 -2.984774E-02  0.000000E+00
        24  3.784813E-04 -2.996835E-02  0.000000E+00
        25  0.000000E+00 -1.553133E-06  0.000000E+00
        26 -8.107101E-10 -1.553130E-06  0.000000E+00
        27 -2.984774E-02  2.578720E-04  0.000000E+00
        28 -2.984774E-02  3.784811E-04  0.000000E+00
        29 -6.000000E-02 -6.000000E-02  0.000000E+00
        30 -6.000000E-02 -6.000000E-02  0.000000E+00
        31  0.000000E+00 -1.552889E-06  0.000000E+00
        32 -8.169318E-10 -1.552886E-06  0.000000E+00
        33 -2.996835E-02  2.578722E-04  0.000000E+00
        34 -2.996835E-02  3.784813E-04  0.000000E+00
        35 -6.000000E-02 -6.000000E-02  0.000000E+00
        36 -6.000000E-02 -6.000000E-02  0.000000E+00
        37  0.000000E+00  0.000000E+00  1.771232E-14
        38 -1.476027E-14  0.000000E+00  1.771232E-14
        39 -7.749140E-07  0.000000E+00 -2.063812E-12
        40 -7.749155E-07  0.000000E+00 -2.063746E-12
        41 -1.553135E-06  0.000000E+00  3.406141E-10
        42 -1.552891E-06  0.000000E+00  3.430071E-10
        43  0.000000E+00 -1.476027E-14  1.771232E-14
        44 -1.476027E-14 -1.476027E-14  1.771232E-14
        45 -7.749140E-07  4.941315E-12 -2.063812E-12
        46 -7.749155E-07  4.941144E-12 -2.063746E-12
        47 -1.553132E-06 -8.107101E-10  3.406141E-10
        48 -1.552888E-06 -8.169318E-10  3.430071E-10
        49  0.000000E+00 -7.749140E-07 -2.063812E-12
        50  4.941315E-12 -7.749140E-07 -2.063812E-12
        51  1.813556E-04  1.813556E-04 -2.948907E-12
        52  1.813556E-04  1.813556E-04 -4.149519E-12
        53  2.578720E-04 -2.984774E-02  3.413675E-10
        54  2.578722E-04 -2.996835E-02  3.413711E-10
        55  0.000000E+00 -7.749155E-07 -2.063746E-12
        56  4.941144E-12 -7.749155E-07 -2.063746E-12
        57  1.813556E-04  1.813556E-04 -4.149519E-12
        58  1.813556E-04  1.813556E-04 -5.350130E-12
        59  3.784811E-04 -2.984774E-02  3.401706E-10
        60  3.784813E-04 -2.996835E-02  3.401742E-10
        61  0.000000E+00 -1.553135E-06  3.406141E-10
        62 -8.107101E-10 -1.553132E-06  3.406141E-10
        63 -2.984774E-02  2.578720E-04  3.413674E-10
        64 -2.984774E-02  3.784811E-04  3.401706E-10
        65 -6.000000E-02 -6.000000E-02  8.801149E-19
        66 -6.000000E-02 -6.000000E-02 -2.422700E-18
        67  0.000000E+00 -1.552891E-06  3.430071E-10
        68 -8.169318E-10 -1.552888E-06  3.430071E-10
        69 -2.996835E-02  2.578722E-04  3.413711E-10
        70 -2.996835E-02  3.784813E-04  3.401742E-10
        71 -6.000000E-02 -6.000000E-02 -2.151014E-18
        72 -6.000000E-02 -6.000000E-02  2.261338E-18

 stresses (elem, integ.pnt.,sxx,syy,szz,sxy,sxz,syz) for set EALL and time  0.2000000E-02

         1   1 -8.856160E-12 -8.856160E-12 -8.085367E-23  7.047346E-23 -1.022635E-23 -1.023166E-23
         1   2 -8.856160E-12 -8.856160E-12  4.902741E-23  1.667453E-22 -3.235833E-23 -1.022951E-23
         1   3 -8.856160E-12 -8.856160E-12  4.905811E-23  1.667392E-22 -1.023023E-23 -3.238698E-23
         1   4 -8.856160E-12 -8.856160E-12  1.789465E-22  2.630110E-22 -3.237529E-23 -3.238163E-23
         1   5 -8.856160E-12 -8.856160E-12 -1.738566E-22  7.046843E-23 -1.603322E-23 -1.602954E-23
         1   6 -8.856160E-12 -8.856160E-12 -4.397063E-23  1.667216E-22 -3.816520E-23 -1.602509E-23
         1   7 -8.856160E-12 -8.856160E-12 -4.397224E-23  1.667385E-22 -1.603433E-23 -3.818486E-23
         1   8 -8.856160E-12 -8.856160E-12  8.592177E-23  2.629917E-22 -3.817951E-23 -3.817721E-23
         2   1 -8.866337E-12  2.072679E-09  4.298021E-15  2.688243E-14 -3.086810E-15  2.246346E-19
         2   2 -8.883741E-12  2.072629E-09 -4.299704E-15  2.689008E-14 -3.091476E-15  2.846077E-19
         2   3 -8.866314E-12  2.072679E-09  4.300296E-15  1.087603E-14 -3.086916E-15  4.509426E-18
         2   4 -8.883718E-12  2.072629E-09 -4.297483E-15  1.088366E-14 -3.091576E-15  4.754734E-18
         2   5 -8.866350E-12  2.072679E-09  4.297245E-15  2.688238E-14  3.077943E-15 -3.446444E-18
         2   6 -8.883755E-12  2.072629E-09 -4.300091E-15  2.689002E-14  3.073300E-15 -3.407956E-18
         2   7 -8.866328E-12  2.072679E-09  4.299548E-15  1.087624E-14  3.077791E-15  8.383477E-19
         2   8 -8.883732E-12  2.072629E-09 -4.297841E-15  1.088388E-14  3.073156E-15  1.062170E-18
         3   1  3.111900E-10 -3.409102E-07  1.562267E-10  2.856849E-10 -1.115878E-10  4.082834E-16
         3   2 -3.200779E-10 -3.427020E-07 -1.562191E-10  2.856776E-10 -1.115877E-10  4.082984E-16
         3   3  3.111662E-10 -3.409102E-07  1.562197E-10 -2.945715E-10 -1.115878E-10 -8.216415E-17
         3   4 -3.201017E-10 -3.427020E-07 -1.562260E-10 -2.945788E-10 -1.115877E-10 -8.213346E-17
         3   5  3.111898E-10 -3.409102E-07  1.562260E-10  2.856849E-10  1.115877E-10  2.014182E-15
         3   6 -3.200781E-10 -3.427020E-07 -1.562197E-10  2.856776E-10  1.115879E-10  2.014222E-15
         3   7  3.111660E-10 -3.409103E-07  1.562191E-10 -2.945715E-10  1.115877E-10  1.523734E-15
         3   8 -3.201019E-10 -3.427020E-07 -1.562267E-10 -2.945788E-10  1.115879E-10  1.523791E-15
         4   1  2.072679E-09 -8.866337E-12  4.297918E-15  2.688235E-14  2.696312E-19 -3.086833E-15
         4   2  2.072679E-09 -8.866314E-12  4.299991E-15  1.087624E-14  4.745954E-18 -3.086823E-15
         4   3  2.072629E-09 -8.883741E-12 -4.299561E-15  2.688997E-14  2.708377E-19 -3.091498E-15
         4   4  2.072629E-09 -8.883718E-12 -4.297470E-15  1.088386E-14  4.743787E-18 -3.091503E-15
         4   5  2.072679E-09 -8.866350E-12  4.297472E-15  2.688232E-14 -3.470045E-18  3.077864E-15
         4   6  2.072679E-09 -8.866328E-12  4.299585E-15  1.087621E-14  1.006278E-18  3.077850E-15
         4   7  2.072629E-09 -8.883754E-12 -4.300014E-15  2.688996E-14 -3.462169E-18  3.073158E-15
         4   8  2.072629E-09 -8.883732E-12 -4.297884E-15  1.088385E-14  1.010780E-18  3.073176E-15
         5   1  1.466899E-09  1.466899E-09 -1.567639E-10  5.035905E-11  5.598709E-11  5.598709E-11
         5   2  1.783626E-09  2.365892E-09  4.082261E-18  3.414919E-10  5.598708E-11  5.598708E-11
         5   3  2.365892E-09  1.783626E-09 -2.005752E-18  3.414919E-10  5.598708E-11  5.598708E-11
         5   4  2.682619E-09  2.682619E-09  1.567639E-10  6.326248E-10  5.598708E-11  5.598708E-11
         5   5  1.466899E-09  1.466899E-09 -1.567639E-10  5.035905E-11 -5.598709E-11 -5.598709E-11
         5   6  1.783626E-09  2.365892E-09  7.690042E-18  3.414919E-10 -5.598710E-11 -5.598709E-11
         5   7  2.365892E-09  1.783626E-09 -2.005751E-18  3.414919E-10 -5.598710E-11 -5.598710E-11
         5   8  2.682619E-09  2.682619E-09  1.567639E-10  6.326248E-10 -5.598709E-11 -5.598709E-11
         6   1  5.897669E-10 -3.419647E-07 -7.789838E-11  5.413084E-10 -1.706558E-13  5.581351E-11
         6   2  5.888002E-10 -3.419675E-07 -7.837773E-11  8.315368E-10 -1.706170E-13  5.581278E-11
         6   3  1.485967E-09 -3.416490E-07  7.837803E-11  5.404199E-10 -1.706455E-13  5.581304E-11
         6   4  1.485001E-09 -3.416517E-07  7.789962E-11  8.306483E-10 -1.707065E-13  5.581343E-11
         6   5  5.897658E-10 -3.419647E-07 -7.789954E-11  5.413076E-10  1.705972E-13 -5.581301E-11
         6   6  5.888018E-10 -3.419675E-07 -7.837623E-11  8.315360E-10  1.706333E-13 -5.581293E-11
         6   7  1.485965E-09 -3.416490E-07  7.837665E-11  5.404210E-10  1.707627E-13 -5.581349E-11
         6   8  1.485001E-09 -3.416517E-07  7.790055E-11  8.306494E-10  1.706889E-13 -5.581260E-11
         7   1 -3.409102E-07  3.111900E-10  1.562267E-10  2.856849E-10  4.083160E-16 -1.115878E-10
         7   2 -3.409102E-07  3.111662E-10  1.562197E-10 -2.945715E-10 -8.193419E-17 -1.115878E-10
         7   3 -3.427020E-07 -3.200779E-10 -1.562191E-10  2.856776E-10  4.083314E-16 -1.115877E-10
         7   4 -3.427020E-07 -3.201017E-10 -1.562260E-10 -2.945788E-10 -8.191158E-17 -1.115877E-10
         7   5 -3.409102E-07  3.111898E-10  1.562260E-10  2.856849E-10  2.014106E-15  1.115877E-10
         7   6 -3.409103E-07  3.111660E-10  1.562191E-10 -2.945715E-10  1.523856E-15  1.115877E-10
         7   7 -3.427020E-07 -3.200781E-10 -1.562197E-10  2.856776E-10  2.014157E-15  1.115879E-10
         7   8 -3.427020E-07 -3.201019E-10 -1.562267E-10 -2.945788E-10  1.523914E-15  1.115879E-10
         8   1 -3.419647E-07  5.897671E-10 -7.789848E-11  5.413087E-10  5.581285E-11 -1.707652E-13
         8   2 -3.416490E-07  1.485967E-09  7.837884E-11  5.404201E-10  5.581292E-11 -1.705705E-13
         8   3 -3.419675E-07  5.888001E-10 -7.837794E-11  8.315370E-10  5.581261E-11 -1.707448E-13
         8   4 -3.416517E-07  1.485000E-09  7.789912E-11  8.306486E-10  5.581315E-11 -1.705486E-13
         8   5 -3.419647E-07  5.897677E-10 -7.789801E-11  5.413080E-10 -5.581331E-11  1.706043E-13
         8   6 -3.416490E-07  1.485968E-09  7.837931E-11  5.404205E-10 -5.581338E-11  1.706906E-13
         8   7 -3.419675E-07  5.888017E-10 -7.837644E-11  8.315370E-10 -5.581305E-11  1.706267E-13
         8   8 -3.416517E-07  1.485002E-09  7.790062E-11  8.306490E-10 -5.581353E-11  1.707125E-13
         9   1 -1.970643E-17 -1.970643E-17 -4.598166E-17  4.739295E-36 -4.675764E-16 -4.583018E-16
         9   2  6.341469E-16  1.728774E-15  3.850489E-16  5.473136E-16  9.007076E-16  1.062041E-15
         9   3 -1.596750E-16 -1.596750E-16 -3.725750E-16  2.897469E-35 -9.996597E-16 -1.142444E-15
         9   4  3.235562E-16  5.972130E-16  4.813078E-16  1.368284E-16 -8.628313E-16 -8.535567E-16
         9   5 -1.970643E-17 -1.970643E-17 -4.598166E-17  5.235190E-36  3.342465E-16  3.688597E-16
         9   6 -5.973087E-16 -1.144622E-15 -8.464067E-16 -2.736568E-16  3.342465E-16  9.363503E-16
         9   7 -1.596750E-16 -1.596750E-16 -3.725750E-16  5.441992E-36 -1.928900E-16 -7.257675E-16
         9   8  5.287988E-16  1.076112E-15  6.865504E-16  2.736568E-16 -4.665468E-16 -4.319337E-16

 strains (elem, integ.pnt.,exx,eyy,ezz,exy,exz,eyz) forset EALL and time  0.2000000E-02

         1   1 -2.952053E-17 -2.952053E-17  2.530331E-17  4.362643E-28 -6.330599E-29 -6.333883E-29
         1   2 -2.952053E-17 -2.952053E-17  2.530331E-17  1.032233E-27 -2.003135E-28 -6.332554E-29
         1   3 -2.952053E-17 -2.952053E-17  2.530331E-17  1.032195E-27 -6.332997E-29 -2.004908E-28
         1   4 -2.952053E-17 -2.952053E-17  2.530331E-17  1.628163E-27 -2.004184E-28 -2.004577E-28