
 displacements (vx,vy,vz) for set NALL and time  0.1000000E-02

         1  0.000000E+00  0.000000E+00  0.000000E+00
         2 -4.081632E-10  0.000000E+00  0.000000E+00
         3 -1.500000E-02  0.000000E+00  0.000000E+00
         4 -1.500000E-02  0.000000E+00  0.000000E+00
         5 -3.000000E-02  0.000000E+00  0.000000E+00
         6 -3.000000E-02  0.000000E+00  0.000000E+00
         7  0.000000E+00  1.224490E-10  0.000000E+00
         8 -4.081632E-10  1.224490E-10  0.000000E+00
         9 -1.500000E-02  1.224490E-10  0.000000E+00
        10 -1.500000E-02  1.224490E-10  0.000000E+00
        11 -3.000000E-02  1.224490E-10  0.000000E+00
        12 -3.000000E-02  1.224490E-10  0.000000E+00
        13  0.000000E+00  0.000000E+00  1.714286E-10
        14 -4.081632E-10  0.000000E+00  1.714286E-10
        15 -1.500000E-02  0.000000E+00  1.714286E-10
        16 -1.500000E-02  0.000000E+00  1.714286E-10
        17 -3.000000E-02  0.000000E+00  1.714286E-10
        18 -3.000000E-02  0.000000E+00  1.714286E-10
        19  0.000000E+00  1.224490E-10  1.714286E-10
        20 -4.081632E-10  1.224490E-10  1.714286E-10
        21 -1.500000E-02  1.224490E-10  1.714286E-10
        22 -1.500000E-02  1.224490E-10  1.714286E-10
        23 -3.000000E-02  1.224490E-10  1.714286E-10
        24 -3.000000E-02  1.224490E-10  1.714286E-10

 stresses (elem, integ.pnt.,sxx,syy,szz,sxy,sxz,syz) for set EALL and time  0.1000000E-02

         1   1 -1.714286E-07 -1.100153E-51  1.323489E-23 -6.626432E-24  2.548628E-25  1.529177E-24
         1   2 -1.714286E-07  5.293956E-23  1.323489E-23 -4.485584E-23  7.645883E-24 -2.676059E-24
         1   3 -1.714286E-07 -3.970467E-23 -1.323489E-23  1.172369E-23  9.175059E-24 -5.097255E-24
         1   4 -1.714286E-07  1.323489E-23 -3.970467E-23 -2.650573E-23  5.403090E-23 -1.860498E-23
         1   5 -1.714286E-07  1.323489E-23  2.646978E-23  3.568079E-24 -1.044937E-23  1.784039E-23
         1   6 -1.714286E-07 -1.668725E-52  1.373582E-51  1.529177E-24 -3.058353E-24  1.656608E-24
         1   7 -1.714286E-07  2.646978E-23  5.293956E-23  6.116706E-24 -1.223341E-23  1.121396E-23
         1   8 -1.714286E-07  1.323489E-23  1.323489E-23  6.116706E-24  2.650573E-23 -1.427231E-23
         2   1 -1.714286E-07 -2.564601E-16 -3.668668E-16 -3.631737E-16  2.235019E-17  1.106981E-17
         2   2 -1.714286E-07 -3.928247E-16 -3.006927E-16  2.867612E-16  3.131105E-16 -1.294151E-17
         2   3 -1.714286E-07  4.106451E-16  4.029488E-16 -4.208274E-16  2.452989E-16 -3.058420E-17
         2   4 -1.714286E-07  1.258480E-16  1.227802E-16 -2.744578E-17  7.426340E-17  1.834145E-17
         2   5 -1.714286E-07  2.688643E-17  3.311094E-17 -2.573840E-16  8.341205E-17  8.296708E-17
         2   6 -1.714286E-07  2.479130E-16  2.524527E-16 -3.257982E-16  2.202405E-16 -7.958132E-17
         2   7 -1.714286E-07 -2.039447E-16 -9.500977E-17 -2.129260E-16 -1.058331E-16  4.131308E-17
         2   8 -1.714286E-07 -1.313507E-16 -2.220108E-16 -2.813402E-16 -2.768686E-16 -4.829836E-17
         3   1 -1.714286E-07 -5.155138E-16 -5.202722E-16 -1.297177E-16  2.660698E-16  4.671454E-18
         3   2 -1.714286E-07 -4.697290E-16 -5.429521E-16  4.175959E-16  1.976556E-16  3.004152E-18
         3   3 -1.714286E-07 -4.922245E-16 -3.975161E-16 -1.102911E-16 -5.872882E-16 -5.219259E-17
         3   4 -1.714286E-07 -5.412446E-16 -6.414076E-16  2.659870E-16 -3.997459E-17  3.006960E-17
         3   5 -1.714286E-07 -4.349731E-16 -2.805121E-16 -4.971945E-16 -2.831491E-17  7.429815E-17
         3   6 -1.714286E-07  2.206624E-17 -1.269401E-16 -8.670929E-17 -2.831491E-17 -1.585380E-17
         3   7 -1.714286E-07 -1.181343E-15 -9.274158E-16 -3.602665E-16 -4.228440E-16  1.743411E-17
         3   8 -1.714286E-07 -8.191091E-16 -9.950554E-16 -2.234381E-16 -3.544298E-16  1.121165E-17

 strains (elem, integ.pnt.,exx,eyy,ezz,exy,exz,eyz) forset EALL and time  0.1000000E-02

         1   1 -8.163265E-13  2.448979E-13  2.448979E-13 -4.102077E-29  1.577722E-30  9.466331E-30
         1   2 -8.163265E-13  2.448979E-13  2.448979E-13 -2.776790E-28  4.733165E-29 -1.656608E-29
         1   3 -8.163265E-13  2.448979E-13  2.448979E-13  7.257520E-29  5.679799E-29 -3.155444E-29
         1   4 -8.163265E-13  2.448979E-13  2.448979E-13 -1.640831E-28  3.344770E-28 -1.151737E-28
         1   5 -8.163265E-13  2.448979E-13  2.448979E-13  2.208811E-29 -6.468659E-29  1.104405E-28
         1   6 -8.163265E-13  2.448979E-13  2.448979E-13  9.466331E-30 -1.893266E-29  1.025519E-29
         1   7 -8.163265E-13  2.448979E-13  2.448979E-13  3.786532E-29 -7.573065E-29  6.941976E-29
         1   8 -8.163265E-13  2.448979E-13  2.448979E-13  3.786532E-29  1.640831E-28 -8.835242E-29
         2   1 -8.163265E-13  2.448979E-13  2.448979E-13 -2.248218E-21  1.383583E-22  6.852737E-23
         2   2 -8.163265E-13  2.448979E-13  2.448979E-13  1.775188E-21  1.938303E-21 -8.011410E-23
         2   3 -8.163265E-13  2.448979E-13  2.448979E-13 -2.605122E-21  1.518517E-21 -1.893307E-22
         2   4 -8.163265E-13  2.448979E-13  2.448979E-13 -1.699024E-22  4.597258E-22  1.135423E-22
         2   5 -8.163265E-13  2.448979E-13  2.448979E-13 -1.593330E-21  5.163603E-22  5.136058E-22
         2   6 -8.163265E-13  2.448979E-13  2.448979E-13 -2.016846E-21  1.363393E-21 -4.926463E-22
         2   7 -8.163265E-13  2.448979E-13  2.448979E-13 -1.318113E-21 -6.551575E-22  2.557477E-22
         2   8 -8.163265E-13  2.448979E-13  2.448979E-13 -1.741630E-21 -1.713949E-21 -2.989899E-22
         3   1 -8.163265E-13  2.448979E-13  2.448979E-13 -8.030146E-22  1.647099E-21  2.891853E-23
         3   2 -8.163265E-13  2.448979E-13  2.448979E-13  2.585117E-21  1.223583E-21  1.859713E-23
         3   3 -8.163265E-13  2.448979E-13  2.448979E-13 -6.827543E-22 -3.635594E-21 -3.230970E-22
         3   4 -8.163265E-13  2.448979E-13  2.448979E-13  1.646586E-21 -2.474617E-22  1.861451E-22
         3   5 -8.163265E-13  2.448979E-13  2.448979E-13 -3.077871E-21 -1.752828E-22  4.599409E-22
         3   6 -8.163265E-13  2.448979E-13  2.448979E-13 -5.367718E-22 -1.752828E-22 -9.814256E-23
         3   7 -8.163265E-13  2.448979E-13  2.448979E-13 -2.230221E-21 -2.617606E-21  1.079254E-22
         3   8 -8.163265E-13  2.448979E-13  2.448979E-13 -1.383188E-21 -2.194089E-21  6.940544E-23

 displacements (vx,vy,vz) for set NALL and time  0.2000000E-02

         1  0.000000E+00  0.000000E+00  0.000000E+00
         2 -8.163265E-10  0.000000E+00  0.000000E+00
         3 -3.000000E-02  0.000000E+00  0.000000E+00
         4 -3.000000E-02  0.000000E+00  0.000000E+00
         5 -6.000000E-02  0.000000E+00  0.000000E+00
         6 -6.000000E-02  0.000000E+00  0.000000E+00
         7  0.000000E+00  2.448979E-10  0.000000E+00
         8 -8.163265E-10  2.448979E-10  0.000000E+00
         9 -3.000000E-02  2.448979E-10  0.000000E+00
        10 -3.000000E-02  2.448979E-10  0.000000E+00
        11 -6.000000E-02  2.448980E-10  0.000000E+00
        12 -6.000000E-02  2.448979E-10  0.000000E+00
        13  0.000000E+00  0.000000E+00  3.428571E-10
        14 -8.163265E-10  0.000000E+00  3.428571E-10
        15 -3.000000E-02  0.000000E+00  3.428571E-10
        16 -3.000000E-02  0.000000E+00  3.428571E-10
        17 -6.000000E-02  0.000000E+00  3.428571E-10
        18 -6.000000E-02  0.000000E+00  3.428571E-10
        19  0.000000E+00  2.448979E-10  3.428571E-10
        20 -8.163265E-10  2.448979E-10  3.428571E-10
        21 -3.000000E-02  2.448979E-10  3.428571E-10
        22 -3.000000E-02  2.448979E-10  3.428571E-10
        23 -6.000000E-02  2.448979E-10  3.428571E-10
        24 -6.000000E-02  2.448980E-10  3.428571E-10

 stresses (elem, integ.pnt.,sxx,syy,szz,sxy,sxz,syz) for set EALL and time  0.2000000E-02

         1   1 -3.428571E-07 -2.646978E-23 -1.447569E-51 -7.391020E-24 -7.645883E-24  4.077804E-24
         1   2 -3.428571E-07  3.104231E-52  2.646978E-23 -1.248827E-23 -5.556008E-23  3.058353E-24
         1   3 -3.428571E-07  2.646978E-23  2.646978E-23 -9.175059E-24 -4.077804E-24  1.631122E-23
         1   4 -3.428571E-07  2.646978E-23  7.940934E-23 -1.427231E-23 -2.650573E-23  1.121396E-23
         1   5 -3.428571E-07 -2.646978E-23 -5.293956E-23 -2.038902E-24  1.121396E-23  4.077804E-24
         1   6 -3.428571E-07 -2.646978E-23 -2.646978E-23 -1.835012E-23 -3.670024E-23  3.058353E-24
         1   7 -3.428571E-07 -2.646978E-23 -7.940934E-23 -8.155608E-24  1.427231E-23  1.427231E-23
         1   8 -3.428571E-07 -2.646978E-23 -2.646978E-23 -2.446682E-23 -1.631122E-23  1.121396E-23
         2   1 -3.428571E-07 -1.257086E-15 -1.411361E-15 -2.294584E-17 -3.580601E-16 -1.016364E-17
         2   2 -3.428571E-07 -1.323040E-15 -1.147325E-15  4.559536E-16  8.663217E-17  5.477999E-18
         2   3 -3.428571E-07 -1.307327E-15 -1.460174E-15 -8.563504E-17  4.487939E-17 -3.893008E-17
         2   4 -3.428571E-07 -1.395368E-15 -1.247676E-15 -2.566705E-16  2.501220E-16  4.006048E-17
         2   5 -3.428571E-07 -6.283819E-16 -7.021104E-16  5.568300E-16 -2.148322E-16 -9.164777E-18
         2   6 -3.428571E-07 -3.839259E-16 -3.050417E-16  4.200016E-16 -7.800379E-17 -1.413832E-17
         2   7 -3.428571E-07 -1.243039E-15 -1.315341E-15  5.828293E-16  1.674922E-16 -3.793122E-17
         2   8 -3.428571E-07 -1.020671E-15 -9.698102E-16  4.460009E-16  3.727348E-16  2.044417E-17
         3   1 -3.428571E-07 -6.621112E-16 -8.511411E-16  5.299328E-16  1.555890E-16  1.102822E-18
         3   2 -3.428571E-07 -7.733935E-16 -7.942316E-16  8.720038E-16 -5.969672E-16  5.415369E-17
         3   3 -3.428571E-07 -9.234702E-16 -9.136651E-16  4.824476E-16 -5.575220E-16 -1.350687E-16
         3   4 -3.428571E-07 -1.119550E-15 -1.054617E-15  7.561044E-16  1.266200E-16  1.420645E-16
         3   5 -3.428571E-07  3.125893E-16  5.048396E-16  1.192074E-15 -3.404697E-16  1.402873E-16
         3   6 -3.428571E-07  1.299310E-15  1.032322E-15  9.744696E-17  1.384297E-16  1.141935E-16
         3   7 -3.428571E-07 -7.697401E-16 -3.786548E-16  1.458304E-15 -3.809814E-17  4.115799E-18
         3   8 -3.428571E-07  1.321831E-16 -4.903418E-17  6.373338E-16 -3.117549E-16  2.021043E-16

 strains (elem, integ.pnt.,exx,eyy,ezz,exy,exz,eyz) forset EALL and time  0.2000000E-02

         1   1 -1.632653E-12  4.897959E-13  4.897959E-13 -4.575393E-29 -4.733165E-29  2.524355E-29
         1   2 -1.632653E-12  4.897959E-13  4.897959E-13 -7.730837E-29 -3.439434E-28  1.893266E-29
         1   3 -1.632653E-12  4.897959E-13  4.897959E-13 -5.679799E-29 -2.524355E-29  1.009742E-28
         1   4 -1.632653E-12  4.897959E-13  4.897959E-13 -8.835242E-29 -1.640831E-28  6.941976E-29
         1   5 -1.632653E-12  4.897959E-13  4.897959E-13 -1.262177E-29  6.941976E-29  2.524355E-29
         1   6 -1.632653E-12  4.897959E-13  4.897959E-13 -1.135960E-28 -2.271919E-28  1.893266E-29
         1   7 -1.632653E-12  4.897959E-13  4.897959E-13 -5.048710E-29  8.835242E-29  8.835242E-29
         1   8 -1.632653E-12  4.897959E-13  4.897959E-13 -1.514613E-28 -1.009742E-28  6.941976E-29
         2   1 -1.632653E-12  4.897959E-13  4.897959E-13 -1.420457E-22 -2.216563E-21 -6.291777E-23
         2   2 -1.632653E-12  4.897959E-13  4.897959E-13  2.822570E-21  5.362944E-22  3.391142E-23
         2   3 -1.632653E-12  4.897959E-13  4.897959E-13 -5.301216E-22  2.778248E-22 -2.409957E-22
         2   4 -1.632653E-12  4.897959E-13  4.897959E-13 -1.588913E-21  1.548374E-21  2.479934E-22
         2   5 -1.632653E-12  4.897959E-13  4.897959E-13  3.447043E-21 -1.329914E-21 -5.673433E-23
         2   6 -1.632653E-12  4.897959E-13  4.897959E-13  2.600010E-21 -4.828806E-22 -8.752292E-23
         2   7 -1.632653E-12  4.897959E-13  4.897959E-13  3.607991E-21  1.036856E-21 -2.348123E-22
         2   8 -1.632653E-12  4.897959E-13  4.897959E-13  2.760958E-21  2.307406E-21  1.265591E-22
         3   1 -1.632653E-12  4.897959E-13  4.897959E-13  3.280536E-21  9.631700E-22  6.826992E-24
         3   2 -1.632653E-12  4.897959E-13  4.897959E-13  5.398119E-21 -3.695511E-21  3.352371E-22
         3   3 -1.632653E-12  4.897959E-13  4.897959E-13  2.986580E-21 -3.451326E-21 -8.361394E-22
         3   4 -1.632653E-12  4.897959E-13  4.897959E-13  4.680646E-21  7.838383E-22  8.794471E-22
         3   5 -1.632653E-12  4.897959E-13  4.897959E-13  7.379507E-21 -2.107670E-21  8.684452E-22
         3   6 -1.632653E-12  4.897959E-13  4.897959E-13  6.032431E-22  8.569458E-22  7.069121E-22
         3   7 -1.632653E-12  4.897959E-13  4.897959E-13  9.027597E-21 -2.358456E-22  2.547876E-23
         3   8 -1.632653E-12  4.897959E-13  4.897959E-13  3.945400E-21 -1.929912E-21  1.251122E-21

 displacements (vx,vy,vz) for set NALL and time  0.3500000E-02

         1  0.000000E+00  0.000000E+00  0.000000E+00
         2 -1.428571E-09  0.000000E+00  0.000000E+00
         3 -5.250000E-02  0.000000E+00  0.000000E+00
         4 -5.250000E-02  0.000000E+00  0.000000E+00
         5 -1.050000E-01  0.000000E+00  0.000000E+00
         6 -1.050000E-01  0.000000E+00  0.000000E+00
         7  0.000000E+00  4.285714E-10  0.000000E+00
         8 -1.428571E-09  4.285714E-10  0.000000E+00
         9 -5.250000E-02  4.285714E-10  0.000000E+00
        10 -5.250000E-02  4.285714E-10  0.000000E+00
        11 -1.050000E-01  4.285714E-10  0.000000E+00
        12 -1.050000E-01  4.285714E-10  0.000000E+00
        13  0.000000E+00  0.000000E+00  6.000000E-10
        14 -1.428571E-09  0.000000E+00  6.000000E-10
        15 -5.250000E-02  0.000000E+00  6.000000E-10
        16 -5.250000E-02  0.000000E+00  6.000000E-10
        17 -1.050000E-01  0.000000E+00  6.000000E-10
        18 -1.050000E-01  0.000000E+00  6.000000E-10
        19  0.000000E+00  4.285714E-10  6.000000E-10
        20 -1.428571E-09  4.285714E-10  6.000000E-10
        21 -5.250000E-02  4.285714E-10  6.000000E-10
        22 -5.250000E-02  4.285714E-10  6.000000E-10
        23 -1.050000E-01  4.285714E-10  6.000000E-10
        24 -1.050000E-01  4.285714E-10  6.000000E-10

 stresses (elem, integ.pnt.,sxx,syy,szz,sxy,sxz,syz) for set EALL and time  0.3500000E-02

         1   1 -6.000000E-07  2.554155E-51 -5.293956E-23 -9.684785E-24 -9.684785E-24  3.058353E-24
         1   2 -6.000000E-07 -5.293956E-23 -1.013298E-50  2.293765E-23 -5.352118E-23  7.645883E-24
         1   3 -6.000000E-07  2.686688E-50 -5.293956E-23 -3.058353E-23 -1.427231E-23  1.223341E-23
         1   4 -6.000000E-07  5.293956E-23  5.293956E-23  2.038902E-24 -5.912816E-23  2.956408E-23
         1   5 -6.000000E-07 -3.860184E-52 -5.293956E-23 -8.155608E-24  5.097255E-24 -5.097255E-24
         1   6 -6.000000E-07  5.293956E-23 -1.942959E-50 -1.239119E-50 -3.873914E-23  1.376259E-23
         1   7 -6.000000E-07  1.235259E-51 -1.058791E-22 -2.058765E-51  8.155608E-24  4.077804E-24
         1   8 -6.000000E-07 -5.293956E-23 -1.058791E-22 -4.189587E-50 -4.077804E-23  3.568079E-23
         2   1 -6.000000E-07 -2.620672E-17 -2.245837E-16 -1.601639E-17 -5.203929E-16 -2.418802E-17
         2   2 -6.000000E-07 -1.005562E-16 -1.063485E-16  1.892262E-16  1.087341E-15  3.629917E-17
         2   3 -6.000000E-07 -6.272920E-17 -3.098029E-16 -5.977400E-17 -4.520737E-16 -5.618329E-17
         2   4 -6.000000E-07  6.290533E-17  2.750617E-16  2.138828E-16 -3.152453E-16 -1.709374E-17
         2   5 -6.000000E-07  1.458957E-15  1.350167E-15 -2.698131E-17 -4.468443E-16 -5.827567E-17
         2   6 -6.000000E-07  1.279759E-15  1.423467E-15 -3.006381E-16 -5.494656E-16  1.888633E-16
         2   7 -6.000000E-07  1.011950E-15  8.544627E-16 -1.195323E-15 -1.918733E-16 -9.027093E-17
         2   8 -6.000000E-07  1.032736E-15  1.394392E-15 -1.006956E-16 -4.655301E-16  1.354703E-16
         3   1 -6.000000E-07  2.463212E-15  2.671204E-15  3.308537E-17 -2.736292E-15  5.320860E-17
         3   2 -6.000000E-07  2.780389E-15  2.808677E-15  2.769653E-15  5.475898E-16 -4.801783E-17
         3   3 -6.000000E-07 -6.774052E-16 -2.783945E-16  1.234763E-16 -1.350764E-16  6.486388E-17
         3   4 -6.000000E-07 -7.564321E-16 -1.065397E-15 -5.606657E-16  1.780521E-15  5.687175E-17
         3   5 -6.000000E-07 -7.635585E-16 -5.882016E-16  8.086195E-17 -1.914567E-15  1.869219E-16
         3   6 -6.000000E-07  1.046620E-17 -2.549369E-16  2.270116E-15 -1.357976E-16 -2.840946E-16
         3   7 -6.000000E-07  2.663587E-15  3.029963E-15 -1.887473E-15 -1.598739E-15  1.985772E-16
         3   8 -6.000000E-07  3.041408E-15  2.438753E-15 -7.928463E-16  8.641722E-16 -1.792050E-16

 strains (elem, integ.pnt.,exx,eyy,ezz,exy,exz,eyz) forset EALL and time  0.3500000E-02

         1   1 -2.857143E-12  8.571428E-13  8.571428E-13 -5.995343E-29 -5.995343E-29  1.893266E-29
         1   2 -2.857143E-12  8.571428E-13  8.571428E-13  1.419950E-28 -3.313216E-28  4.733165E-29
         1   3 -2.857143E-12  8.571428E-13  8.571428E-13 -1.893266E-28 -8.835242E-29  7.573065E-29
         1   4 -2.857143E-12  8.571428E-13  8.571428E-13  1.262177E-29 -3.660315E-28  1.830157E-28
         1   5 -2.857143E-12  8.571428E-13  8.571428E-13 -5.048710E-29  3.155444E-29 -3.155444E-29
         1   6 -2.857143E-12  8.571428E-13  8.571428E-13  1.051441E-56 -2.398137E-28  8.519698E-29
         1   7 -2.857143E-12  8.571428E-13  8.571428E-13 -1.529368E-56  5.048710E-29  2.524355E-29
         1   8 -2.857143E-12  8.571428E-13  8.571428E-13  1.147026E-56 -2.524355E-28  2.208811E-28
         2   1 -2.857143E-12  8.571428E-13  8.571428E-13 -9.914910E-23 -3.221480E-21 -1.497354E-22
         2   2 -2.857143E-12  8.571428E-13  8.571428E-13  1.171400E-21  6.731157E-21  2.247091E-22
         2   3 -2.857143E-12  8.571428E-13  8.571428E-13 -3.700295E-22 -2.798551E-21 -3.478013E-22
         2   4 -2.857143E-12  8.571428E-13  8.571428E-13  1.324036E-21 -1.951518E-21 -1.058184E-22
         2   5 -2.857143E-12  8.571428E-13  8.571428E-13 -1.670271E-22 -2.766179E-21 -3.607541E-22
         2   6 -2.857143E-12  8.571428E-13  8.571428E-13 -1.861093E-21 -3.401454E-21  1.169154E-21
         2   7 -2.857143E-12  8.571428E-13  8.571428E-13 -7.399617E-21 -1.187787E-21 -5.588201E-22
         2   8 -2.857143E-12  8.571428E-13  8.571428E-13 -6.233538E-22 -2.881853E-21  8.386259E-22
         3   1 -2.857143E-12  8.571428E-13  8.571428E-13  2.048142E-22 -1.693895E-20  3.293866E-22
         3   2 -2.857143E-12  8.571428E-13  8.571428E-13  1.714547E-20  3.389842E-21 -2.972532E-22
         3   3 -2.857143E-12  8.571428E-13  8.571428E-13  7.643770E-22 -8.361870E-22  4.015383E-22
         3   4 -2.857143E-12  8.571428E-13  8.571428E-13 -3.470788E-21  1.102227E-20  3.520632E-22
         3   5 -2.857143E-12  8.571428E-13  8.571428E-13  5.005740E-22 -1.185208E-20  1.157136E-21
         3   6 -2.857143E-12  8.571428E-13  8.571428E-13  1.405310E-20 -8.406520E-22 -1.758681E-21
         3   7 -2.857143E-12  8.571428E-13  8.571428E-13 -1.168436E-20 -9.896956E-21  1.229287E-21
         3   8 -2.857143E-12  8.571428E-13  8.571428E-13 -4.908096E-21  5.349637E-21 -1.109364E-21

 displacements (vx,vy,vz) for set NALL and time  0.5750000E-02

         1  0.000000E+00  0.000000E+00  0.000000E+00
         2 -2.346939E-09  0.000000E+00  0.000000E+00
         3 -8.625000E-02  0.000000E+00  0.000000E+00
         4 -8.625000E-02  0.000000E+00  0.000000E+00
         5 -1.725000E-01  0.000000E+00  0.000000E+00
         6 -1.725000E-01  0.000000E+00  0.000000E+00
         7  0.000000E+00  7.040816E-10  0.000000E+00
         8 -2.346939E-09  7.040816E-10  0.000000E+00
         9 -8.625000E-02  7.040816E-10  0.000000E+00
        10 -8.625000E-02  7.040816E-10  0.000000E+00
        11 -1.725000E-01  7.040816E-10  0.000000E+00
        12 -1.725000E-01  7.040816E-10  0.000000E+00
        13  0.000000E+00  0.000000E+00  9.857142E-10
        14 -2.346939E-09  0.000000E+00  9.857142E-10
        15 -8.625000E-02  0.000000E+00  9.857142E-10
        16 -8.625000E-02  0.000000E+00  9.857142E-10
        17 -1.725000E-01  0.000000E+00  9.857142E-10
        18 -1.725000E-01  0.000000E+00  9.857142E-10
        19  0.000000E+00  7.040816E-10  9.857142E-10
        20 -2.346939E-09  7.040816E-10  9.857142E-10
        21 -8.625000E-02  7.040816E-10  9.857142E-10
        22 -8.625000E-02  7.040816E-10  9.857142E-10
        23 -1.725000E-01  7.040816E-10  9.857142E-10
        24 -1.725000E-01  7.040816E-10  9.857143E-10

 stresses (elem, integ.pnt.,sxx,syy,szz,sxy,sxz,syz) for set EALL and time  0.5750000E-02

         1   1 -9.857142E-07  5.293956E-23 -5.293956E-23 -2.038902E-23 -3.058353E-23  1.223341E-23
         1   2 -9.857142E-07  5.293956E-23  2.646978E-22 -3.262243E-23 -1.916568E-22 -2.038902E-24
         1   3 -9.857142E-07  1.588187E-22  2.759342E-73 -5.301145E-23 -1.492976E-34  4.077804E-23
         1   4 -9.857142E-07  1.588187E-22  2.646978E-22 -6.524487E-23 -7.340047E-23  1.019451E-23
         1   5 -9.857142E-07 -1.588187E-22 -3.705769E-22  1.223341E-23  3.873914E-23 -4.077804E-24
         1   6 -9.857142E-07 -2.117582E-22 -1.058791E-22  1.182563E-22 -1.223341E-22 -6.116706E-24
         1   7 -9.857142E-07  5.293956E-23 -1.588187E-22 -4.077804E-23  7.340047E-23  3.262243E-23
         1   8 -9.857142E-07 -1.026294E-49 -1.852888E-51  6.524487E-23 -5.971902E-34  6.116706E-24
         2   1 -9.857143E-07 -1.963367E-15 -2.355907E-15  1.867678E-15  3.671892E-16  2.327590E-18
         2   2 -9.857143E-07 -2.147799E-15 -1.913448E-15  2.257368E-16  1.461816E-15 -3.122893E-18
         2   3 -9.857143E-07 -4.361801E-15 -4.668372E-15  1.736758E-15 -1.018289E-15 -5.149169E-17
         2   4 -9.857143E-07 -4.596564E-15 -4.343354E-15  2.316453E-16  7.633803E-17 -2.485720E-17
         2   5 -9.857142E-07 -1.406111E-15 -1.647957E-15 -3.147854E-17  6.227246E-16  6.250595E-17
         2   6 -9.857142E-07 -1.433326E-15 -1.138120E-15 -3.051353E-16  1.512109E-15  1.007951E-17
         2   7 -9.857143E-07 -2.573090E-15 -2.728967E-15 -1.174795E-16  1.379525E-15  8.686669E-18
         2   8 -9.857143E-07 -2.650637E-15 -2.336570E-15 -1.174795E-16  5.585542E-16 -1.165479E-17
         3   1 -9.857142E-07 -4.445311E-16 -1.616095E-15  7.754130E-16  2.727768E-15 -3.113602E-16
         3   2 -9.857143E-07 -3.522674E-15 -2.984365E-15 -1.140185E-15 -8.297705E-16  3.991487E-16
         3   3 -9.857142E-07  3.243751E-15  2.064073E-15 -9.669658E-17  1.631170E-16 -1.156333E-15
         3   4 -9.857142E-07  6.688427E-16  1.870018E-15  2.366215E-15 -1.478824E-15  1.025636E-15
         3   5 -9.857142E-07 -8.905296E-16  3.038293E-16 -3.943694E-15  5.144711E-16 -3.170397E-16
         3   6 -9.857142E-07  3.241482E-15  2.025625E-15 -1.207127E-15  1.609098E-15  8.631555E-16
         3   7 -9.857143E-07 -6.643407E-15 -5.457162E-15 -2.755760E-15  6.087609E-16 -1.162012E-15
         3   8 -9.857143E-07 -2.008160E-15 -2.561150E-15 -1.113819E-15 -2.127807E-15  1.489643E-15

 strains (elem, integ.pnt.,exx,eyy,ezz,exy,exz,eyz) forset EALL and time  0.5750000E-02

         1   1 -4.693877E-12  1.408163E-12  1.408163E-12 -1.262177E-28 -1.893266E-28  7.573065E-29
         1   2 -4.693877E-12  1.408163E-12  1.408163E-12 -2.019484E-28 -1.186447E-27 -1.262177E-29
         1   3 -4.693877E-12  1.408163E-12  1.408163E-12 -3.281661E-28  9.242230E-40  2.524355E-28
         1   4 -4.693877E-12  1.408163E-12  1.408163E-12 -4.038968E-28 -4.543839E-28  6.310887E-29
         1   5 -4.693877E-12  1.408163E-12  1.408163E-12  7.573065E-29  2.398137E-28 -2.524355E-29
         1   6 -4.693877E-12  1.408163E-12  1.408163E-12  7.320629E-28 -7.573065E-28 -3.786532E-29
         1   7 -4.693877E-12  1.408163E-12  1.408163E-12 -2.524355E-28  4.543839E-28  2.019484E-28
         1   8 -4.693877E-12  1.408163E-12  1.408163E-12  4.038968E-28  3.696892E-39  3.786532E-29
         2   1 -4.693877E-12  1.408163E-12  1.408163E-12  1.156181E-20  2.273076E-21  1.440889E-23
         2   2 -4.693877E-12  1.408163E-12  1.408163E-12  1.397418E-21  9.049340E-21 -1.933219E-23
         2   3 -4.693877E-12  1.408163E-12  1.408163E-12  1.075136E-20 -6.303695E-21 -3.187581E-22
         2   4 -4.693877E-12  1.408163E-12  1.408163E-12  1.433995E-21  4.725688E-22 -1.538779E-22
         2   5 -4.693877E-12  1.408163E-12  1.408163E-12 -1.948671E-22  3.854962E-21  3.869416E-22
         2   6 -4.693877E-12  1.408163E-12  1.408163E-12 -1.888933E-21  9.360676E-21  6.239698E-23
         2   7 -4.693877E-12  1.408163E-12  1.408163E-12 -7.272540E-22  8.539914E-21  5.377462E-23
         2   8 -4.693877E-12  1.408163E-12  1.408163E-12 -7.272540E-22  3.457717E-21 -7.214869E-23
         3   1 -4.693877E-12  1.408163E-12  1.408163E-12  4.800175E-21  1.688618E-20 -1.927468E-21
         3   2 -4.693877E-12  1.408163E-12  1.408163E-12 -7.058286E-21 -5.136675E-21  2.470920E-21
         3   3 -4.693877E-12  1.408163E-12  1.408163E-12 -5.985979E-22  1.009772E-21 -7.158250E-21
         3   4 -4.693877E-12  1.408163E-12  1.408163E-12  1.464800E-20 -9.154624E-21  6.349177E-21
         3   5 -4.693877E-12  1.408163E-12  1.408163E-12 -2.441335E-20  3.184821E-21 -1.962627E-21
         3   6 -4.693877E-12  1.408163E-12  1.408163E-12 -7.472688E-21  9.961085E-21  5.343343E-21
         3   7 -4.693877E-12  1.408163E-12  1.408163E-12 -1.705947E-20  3.768520E-21 -7.193409E-21
         3   8 -4.693877E-12  1.408163E-12  1.408163E-12 -6.895070E-21 -1.317214E-20  9.221600E-21

 displacements (vx,vy,vz) for set NALL and time  0.9125000E-02

         1  0.000000E+00  0.000000E+00  0.000000E+00
         2 -3.724490E-09  0.000000E+00  0.000000E+00
         3 -1.368750E-01  0.000000E+00  0.000000E+00
         4 -1.368750E-01  0.000000E+00  0.000000E+00
         5 -2.737500E-01  0.000000E+00  0.000000E+00
         6 -2.737500E-01  0.000000E+00  0.000000E+00
         7  0.000000E+00  1.117347E-09  0.000000E+00
         8 -3.724490E-09  1.117347E-09  0.000000E+00
         9 -1.368750E-01  1.117347E-09  0.000000E+00
        10 -1.368750E-01  1.117347E-09  0.000000E+00
        11 -2.737500E-01  1.117347E-09  0.000000E+00
        12 -2.737500E-01  1.117347E-09  0.000000E+00
        13  0.000000E+00  0.000000E+00  1.564286E-09
        14 -3.724490E-09  0.000000E+00  1.564286E-09
        15 -1.368750E-01  0.000000E+00  1.564286E-09
        16 -1.368750E-01  0.000000E+00  1.564286E-09
        17 -2.737500E-01  0.000000E+00  1.564286E-09
        18 -2.737500E-01  0.000000E+00  1.564286E-09
        19  0.000000E+00  1.117347E-09  1.564286E-09
        20 -3.724490E-09  1.117347E-09  1.564286E-09
        21 -1.368750E-01  1.117347E-09  1.564286E-09
        22 -1.368750E-01  1.117347E-09  1.564286E-09
        23 -2.737500E-01  1.117347E-09  1.564286E-09
        24 -2.737500E-01  1.117347E-09  1.564286E-09

 stresses (elem, integ.pnt.,sxx,syy,szz,sxy,sxz,syz) for set EALL and time  0.9125000E-02

         1   1 -1.564286E-06  1.058791E-22  1.058791E-22 -4.893365E-23 -1.223341E-23  8.155608E-24
         1   2 -1.564286E-06  3.176374E-22  2.117582E-22 -2.283570E-22 -9.786730E-23 -1.121396E-23
         1   3 -1.564286E-06 -1.976414E-50 -1.647012E-51 -1.631122E-23  1.631122E-23  8.155608E-24
         1   4 -1.564286E-06  2.117582E-22  1.058791E-22 -1.957346E-22  8.971169E-23 -2.650573E-23
         1   5 -1.564286E-06  1.058791E-22  1.058791E-22 -1.223341E-23 -1.223341E-23 -3.262243E-23
         1   6 -1.564286E-06  2.117582E-22  2.117582E-22 -6.116706E-23 -9.786730E-23 -2.956408E-23
         1   7 -1.564286E-06 -1.058791E-22 -1.058791E-22 -1.579525E-34  2.446682E-23 -4.893365E-23
         1   8 -1.564286E-06 -1.058791E-22 -1.058791E-22 -4.893365E-23  9.786730E-23 -4.485584E-23
         2   1 -1.564286E-06 -9.187199E-16 -5.447473E-16 -3.776310E-15  3.803831E-16 -9.880189E-17
         2   2 -1.564286E-06 -8.825373E-16 -1.459981E-15 -1.997541E-15 -2.629842E-15  8.866322E-17
         2   3 -1.564286E-06  2.497704E-15  2.501087E-15 -3.626361E-15  2.240739E-15 -1.093206E-16
         2   4 -1.564286E-06  3.173231E-15  3.077656E-15 -1.163450E-15  5.148449E-17 -6.412194E-18
         2   5 -1.564286E-06 -3.843658E-15 -3.440233E-15  1.155526E-17 -7.567962E-17 -3.582150E-16
         2   6 -1.564286E-06 -4.221803E-15 -4.533036E-15  2.200810E-15  4.716340E-16  4.259711E-16
         2   7 -1.564286E-06 -1.674859E-17  1.608621E-17  4.312483E-17  2.381397E-15 -3.687337E-16
         2   8 -1.564286E-06  2.444501E-16  4.150861E-16  5.904384E-16  1.921427E-16  3.308957E-16
         3   1 -1.564286E-06 -5.433891E-15 -7.298449E-15 -2.650240E-16 -1.645976E-15  2.344652E-16
         3   2 -1.564286E-06 -6.377816E-15 -4.673880E-15  1.376917E-15 -7.392769E-15 -2.074544E-16
         3   3 -1.564286E-06 -2.979488E-15 -3.213448E-15 -9.890832E-16 -2.466057E-16 -2.663824E-16
         3   4 -1.564286E-06 -6.235558E-15 -5.983885E-15 -4.417696E-16  3.037276E-15  2.423540E-16
         3   5 -1.564286E-06 -6.656589E-15 -7.118774E-15 -4.156383E-15  9.329143E-16  1.375883E-15
         3   6 -1.564286E-06 -2.942300E-15 -2.497827E-15  1.316753E-15 -3.445595E-15 -1.224039E-15
         3   7 -1.564286E-06 -3.791700E-15 -2.623287E-15 -3.549524E-15 -9.203451E-16  8.750358E-16
         3   8 -1.564286E-06 -2.389556E-15 -3.397347E-15 -2.656421E-16  1.268909E-15 -7.742304E-16

 strains (elem, integ.pnt.,exx,eyy,ezz,exy,exz,eyz) forset EALL and time  0.9125000E-02

         1   1 -7.448979E-12  2.234694E-12  2.234694E-12 -3.029226E-28 -7.573065E-29  5.048710E-29
         1   2 -7.448979E-12  2.234694E-12  2.234694E-12 -1.413639E-27 -6.058452E-28 -6.941976E-29
         1   3 -7.448979E-12  2.234694E-12  2.234694E-12 -1.009742E-28  1.009742E-28  5.048710E-29
         1   4 -7.448979E-12  2.234694E-12  2.234694E-12 -1.211690E-27  5.553581E-28 -1.640831E-28
         1   5 -7.448979E-12  2.234694E-12  2.234694E-12 -7.573065E-29 -7.573065E-29 -2.019484E-28
         1   6 -7.448979E-12  2.234694E-12  2.234694E-12 -3.786532E-28 -6.058452E-28 -1.830157E-28
         1   7 -7.448979E-12  2.234694E-12  2.234694E-12  9.778011E-40  1.514613E-28 -3.029226E-28
         1   8 -7.448979E-12  2.234694E-12  2.234694E-12 -3.029226E-28  6.058452E-28 -2.776790E-28
         2   1 -7.448979E-12  2.234694E-12  2.234694E-12 -2.337716E-20  2.354752E-21 -6.116307E-22
         2   2 -7.448979E-12  2.234694E-12  2.234694E-12 -1.236573E-20 -1.627997E-20  5.488675E-22