    1C
    1UUSER                                                              
    1UDATE              12.august.2016                                  
    1UTIME              10:55:35                                        
    1UHOST                                                              
    1UPGM               CalculiX                                        
    1UVERSION           Version 2.10                             
    1UCOMPILETIME       Sa 5. Mär 12:23:33 CET 2016                    
    1UDIR                                                               
    1UDBN                                                               
    1UMAT    1SI1                                                       
    1UMAT    2EL                                                        
    1UMAT    3SPRING                                                    
    2C                            72                                     1
 -1         1 0.00000E+00 0.00000E+00 0.00000E+00
 -1         2 5.00000E+02 0.00000E+00 0.00000E+00
 -1         3 5.10000E+02 0.00000E+00 0.00000E+00
 -1         4 1.01000E+03 0.00000E+00 0.00000E+00
 -1         5 1.02000E+03 0.00000E+00 0.00000E+00
 -1         6 1.52000E+03 0.00000E+00 0.00000E+00
 -1         7 0.00000E+00 5.00000E+02 0.00000E+00
 -1         8 5.00000E+02 5.00000E+02 0.00000E+00
 -1         9 5.10000E+02 5.00000E+02 0.00000E+00
 -1        10 1.01000E+03 5.00000E+02 0.00000E+00
 -1        11 1.02000E+03 5.00000E+02 0.00000E+00
 -1        12 1.52000E+03 5.00000E+02 0.00000E+00
 -1        13 0.00000E+00 5.10000E+02 0.00000E+00
 -1        14 5.00000E+02 5.10000E+02 0.00000E+00
 -1        15 5.10000E+02 5.10000E+02 0.00000E+00
 -1        16 1.01000E+03 5.10000E+02 0.00000E+00
 -1        17 1.02000E+03 5.10000E+02 0.00000E+00
 -1        18 1.52000E+03 5.10000E+02 0.00000E+00
 -1        19 0.00000E+00 1.01000E+03 0.00000E+00
 -1        20 5.00000E+02 1.01000E+03 0.00000E+00
 -1        21 5.10000E+02 1.01000E+03 0.00000E+00
 -1        22 1.01000E+03 1.01000E+03 0.00000E+00
 -1        23 1.02000E+03 1.01000E+03 0.00000E+00
 -1        24 1.52000E+03 1.01000E+03 0.00000E+00
 -1        25 0.00000E+00 1.02000E+03 0.00000E+00
 -1        26 5.00000E+02 1.02000E+03 0.00000E+00
 -1        27 5.10000E+02 1.02000E+03 0.00000E+00
 -1        28 1.01000E+03 1.02000E+03 0.00000E+00
 -1        29 1.02000E+03 1.02000E+03 0.00000E+00
 -1        30 1.52000E+03 1.02000E+03 0.00000E+00
 -1        31 0.00000E+00 1.52000E+03 0.00000E+00
 -1        32 5.00000E+02 1.52000E+03 0.00000E+00
 -1        33 5.10000E+02 1.52000E+03 0.00000E+00
 -1        34 1.01000E+03 1.52000E+03 0.00000E+00
 -1        35 1.02000E+03 1.52000E+03 0.00000E+00
 -1        36 1.52000E+03 1.52000E+03 0.00000E+00
 -1        37 0.00000E+00 0.00000E+00 7.00000E+02
 -1        38 5.00000E+02 0.00000E+00 7.00000E+02
 -1        39 5.10000E+02 0.00000E+00 7.00000E+02
 -1        40 1.01000E+03 0.00000E+00 7.00000E+02
 -1        41 1.02000E+03 0.00000E+00 7.00000E+02
 -1        42 1.52000E+03 0.00000E+00 7.00000E+02
 -1        43 0.00000E+00 5.00000E+02 7.00000E+02
 -1        44 5.00000E+02 5.00000E+02 7.00000E+02
 -1        45 5.10000E+02 5.00000E+02 7.00000E+02
 -1        46 1.01000E+03 5.00000E+02 7.00000E+02
 -1        47 1.02000E+03 5.00000E+02 7.00000E+02
 -1        48 1.52000E+03 5.00000E+02 7.00000E+02
 -1        49 0.00000E+00 5.10000E+02 7.00000E+02
 -1        50 5.00000E+02 5.10000E+02 7.00000E+02
 -1        51 5.10000E+02 5.10000E+02 7.00000E+02
 -1        52 1.01000E+03 5.10000E+02 7.00000E+02
 -1        53 1.02000E+03 5.10000E+02 7.00000E+02
 -1        54 1.52000E+03 5.10000E+02 7.00000E+02
 -1        55 0.00000E+00 1.01000E+03 7.00000E+02
 -1        56 5.00000E+02 1.01000E+03 7.00000E+02
 -1        57 5.10000E+02 1.01000E+03 7.00000E+02
 -1        58 1.01000E+03 1.01000E+03 7.00000E+02
 -1        59 1.02000E+03 1.01000E+03 7.00000E+02
 -1        60 1.52000E+03 1.01000E+03 7.00000E+02
 -1        61 0.00000E+00 1.02000E+03 7.00000E+02
 -1        62 5.00000E+02 1.02000E+03 7.00000E+02
 -1        63 5.10000E+02 1.02000E+03 7.00000E+02
 -1        64 1.01000E+03 1.02000E+03 7.00000E+02
 -1        65 1.02000E+03 1.02000E+03 7.00000E+02
 -1        66 1.52000E+03 1.02000E+03 7.00000E+02
 -1        67 0.00000E+00 1.52000E+03 7.00000E+02
 -1        68 5.00000E+02 1.52000E+03 7.00000E+02
 -1        69 5.10000E+02 1.52000E+03 7.00000E+02
 -1        70 1.01000E+03 1.52000E+03 7.00000E+02
 -1        71 1.02000E+03 1.52000E+03 7.00000E+02
 -1        72 1.52000E+03 1.52000E+03 7.00000E+02
 -3
    3C                            57                                     1
 -1         1    1    0    2
 -2         1         2         8         7        37        38        44        43
 -1         2    1    0    2
 -2         3         4        10         9        39        40        46        45
 -1         3    1    0    2
 -2         5         6        12        11        41        42        48        47
 -1         4    1    0    2
 -2        13        14        20        19        49        50        56        55
 -1         5    1    0    2
 -2        15        16        22        21        51        52        58        57
 -1         6    1    0    2
 -2        17        18        24        23        53        54        60        59
 -1         7    1    0    2
 -2        25        26        32        31        61        62        68        67
 -1         8    1    0    2
 -2        27        28        34        33        63        64        70        69
 -1         9    1    0    2
 -2        29        30        36        35        65        66        72        71
 -1        10   11    0    3
 -2         2         3
 -1        11   11    0    3
 -2         8         9
 -1        12   11    0    3
 -2        38        39
 -1        13   11    0    3
 -2        44        45
 -1        14   11    0    3
 -2         4         5
 -1        15   11    0    3
 -2        10        11
 -1        16   11    0    3
 -2        40        41
 -1        17   11    0    3
 -2        46        47
 -1        18   11    0    3
 -2        14        15
 -1        19   11    0    3
 -2        20        21
 -1        20   11    0    3
 -2        50        51
 -1        21   11    0    3
 -2        56        57
 -1        22   11    0    3
 -2        16        17
 -1        23   11    0    3
 -2        22        23
 -1        24   11    0    3
 -2        52        53
 -1        25   11    0    3
 -2        58        59
 -1        26   11    0    3
 -2        26        27
 -1        27   11    0    3
 -2        32        33
 -1        28   11    0    3
 -2        62        63
 -1        29   11    0    3
 -2        68        69
 -1        30   11    0    3
 -2        28        29
 -1        31   11    0    3
 -2        34        35
 -1        32   11    0    3
 -2        64        65
 -1        33   11    0    3
 -2        70        71
 -1        34   11    0    3
 -2         7        13
 -1        35   11    0    3
 -2         8        14
 -1        36   11    0    3
 -2        44        50
 -1        37   11    0    3
 -2        43        49
 -1        38   11    0    3
 -2         9        15
 -1        39   11    0    3
 -2        10        16
 -1        40   11    0    3
 -2        46        52
 -1        41   11    0    3
 -2        45        51
 -1        42   11    0    3
 -2        11        17
 -1        43   11    0    3
 -2        12        18
 -1        44   11    0    3
 -2        48        54
 -1        45   11    0    3
 -2        47        53
 -1        46   11    0    3
 -2        19        25
 -1        47   11    0    3
 -2        20        26
 -1        48   11    0    3
 -2        56        62
 -1        49   11    0    3
 -2        55        61
 -1        50   11    0    3
 -2        21        27
 -1        51   11    0    3
 -2        22        28
 -1        52   11    0    3
 -2        58        64
 -1        53   11    0    3
 -2        57        63
 -1        54   11    0    3
 -2        23        29
 -1        55   11    0    3
 -2        24        30
 -1        56   11    0    3
 -2        60        66
 -1        57   11    0    3
 -2        59        65
 -3
    1PSTEP                         1           1           1          
  100CL  101 1.00000E-03          72                     0    1           1
 -4  DISP        4    1
 -5  D1          1    2    1    0
 -5  D2          1    2    2    0
 -5  D3          1    2    3    0
 -5  ALL         1    2    0    0    1ALL
 -1         1 0.00000E+00 0.00000E+00 0.00000E+00
 -1         2-1.83321E-15 0.00000E+00 0.00000E+00
 -1         3-9.62438E-08 0.00000E+00 0.00000E+00
 -1         4-9.62441E-08 0.00000E+00 0.00000E+00
 -1         5-1.92692E-07 0.00000E+00 0.00000E+00
 -1         6-1.92570E-07 0.00000E+00 0.00000E+00
 -1         7 0.00000E+00-1.83321E-15 0.00000E+00
 -1         8-1.83321E-15-1.83321E-15 0.00000E+00
 -1         9-9.62438E-08 1.22989E-12 0.00000E+00
 -1        10-9.62441E-08 1.22988E-12 0.00000E+00
 -1        11-1.92692E-07-4.06766E-10 0.00000E+00
 -1        12-1.92569E-07-4.08322E-10 0.00000E+00
 -1        13 0.00000E+00-9.62437E-08 0.00000E+00
 -1        14 1.22989E-12-9.62437E-08 0.00000E+00
 -1        15 4.51691E-05 4.51691E-05 0.00000E+00
 -1        16 4.51691E-05 4.51691E-05 0.00000E+00
 -1        17 6.41073E-05-1.49622E-02 0.00000E+00
 -1        18 6.41074E-05-1.49923E-02 0.00000E+00
 -1        19 0.00000E+00-9.62441E-08 0.00000E+00
 -1        20 1.22988E-12-9.62441E-08 0.00000E+00
 -1        21 4.51691E-05 4.51691E-05 0.00000E+00
 -1        22 4.51691E-05 4.51691E-05 0.00000E+00
 -1        23 9.41835E-05-1.49622E-02 0.00000E+00
 -1        24 9.41836E-05-1.49923E-02 0.00000E+00
 -1        25 0.00000E+00-1.92693E-07 0.00000E+00
 -1        26-4.06766E-10-1.92692E-07 0.00000E+00
 -1        27-1.49622E-02 6.41073E-05 0.00000E+00
 -1        28-1.49622E-02 9.41835E-05 0.00000E+00
 -1        29-3.00000E-02-3.00000E-02 0.00000E+00
 -1        30-3.00000E-02-3.00000E-02 0.00000E+00
 -1        31 0.00000E+00-1.92570E-07 0.00000E+00
 -1        32-4.08322E-10-1.92569E-07 0.00000E+00
 -1        33-1.49923E-02 6.41074E-05 0.00000E+00
 -1        34-1.49923E-02 9.41836E-05 0.00000E+00
 -1        35-3.00000E-02-3.00000E-02 0.00000E+00
 -1        36-3.00000E-02-3.00000E-02 0.00000E+00
 -1        37 0.00000E+00 0.00000E+00 2.19986E-15
 -1        38-1.83321E-15 0.00000E+00 2.19986E-15
 -1        39-9.62438E-08 0.00000E+00-5.15120E-13
 -1        40-9.62441E-08 0.00000E+00-5.15116E-13
 -1        41-1.92693E-07 0.00000E+00 1.70870E-10
 -1        42-1.92571E-07 0.00000E+00 1.71469E-10
 -1        43 0.00000E+00-1.83321E-15 2.19986E-15
 -1        44-1.83321E-15-1.83321E-15 2.19986E-15
 -1        45-9.62438E-08 1.22989E-12-5.15120E-13
 -1        46-9.62441E-08 1.22988E-12-5.15116E-13
 -1        47-1.92692E-07-4.06766E-10 1.70870E-10
 -1        48-1.92570E-07-4.08322E-10 1.71469E-10
 -1        49 0.00000E+00-9.62437E-08-5.15120E-13
 -1        50 1.22989E-12-9.62437E-08-5.15120E-13
 -1        51 4.51691E-05 4.51691E-05-7.33111E-13
 -1        52 4.51691E-05 4.51691E-05-1.03296E-12
 -1        53 6.41073E-05-1.49622E-02 1.71060E-10
 -1        54 6.41074E-05-1.49923E-02 1.71061E-10
 -1        55 0.00000E+00-9.62441E-08-5.15116E-13
 -1        56 1.22988E-12-9.62441E-08-5.15116E-13
 -1        57 4.51691E-05 4.51691E-05-1.03296E-12
 -1        58 4.51691E-05 4.51691E-05-1.33281E-12
 -1        59 9.41835E-05-1.49622E-02 1.70761E-10
 -1        60 9.41836E-05-1.49923E-02 1.70761E-10
 -1        61 0.00000E+00-1.92693E-07 1.70870E-10
 -1        62-4.06766E-10-1.92692E-07 1.70870E-10
 -1        63-1.49622E-02 6.41073E-05 1.71060E-10
 -1        64-1.49622E-02 9.41835E-05 1.70761E-10
 -1        65-3.00000E-02-3.00000E-02 4.59523E-19
 -1        66-3.00000E-02-3.00000E-02-1.20133E-18
 -1        67 0.00000E+00-1.92571E-07 1.71469E-10
 -1        68-4.08322E-10-1.92570E-07 1.71469E-10
 -1        69-1.49923E-02 6.41074E-05 1.71061E-10
 -1        70-1.49923E-02 9.41836E-05 1.70761E-10
 -1        71-3.00000E-02-3.00000E-02-1.06549E-18
 -1        72-3.00000E-02-3.00000E-02 1.13144E-18
 -3
    1PSTEP                         2           1           1          
  100CL  101 1.00000E-03          72                     0    1           1
 -4  STRESS      6    1
 -5  SXX         1    4    1    1
 -5  SYY         1    4    2    2
 -5  SZZ         1    4    3    3
 -5  SXY         1    4    1    2
 -5  SYZ         1    4    2    3
 -5  SZX         1    4    3    1
 -1         1-1.09988E-12-1.09988E-12-3.47269E-23-1.36706E-27 2.21382E-28 1.97456E-28
 -1         2-5.49942E-13-5.49942E-13 9.74693E-24 2.03270E-23 9.29878E-29-4.62790E-24
 -1         3-5.50061E-13 2.58101E-10 2.28832E-16 1.01443E-15-1.90868E-24-1.66816E-16
 -1         4-5.50994E-13 2.58098E-10-2.29160E-16 1.01614E-15-2.80002E-24-1.67864E-16
 -1         5 6.81113E-11-8.53868E-08 3.38481E-11 6.25850E-11-1.00814E-21-2.41770E-11
 -1         6-1.37323E-10-1.71550E-07-6.76953E-11 1.25169E-10-2.01917E-21-4.83541E-11
 -1         7-5.49942E-13-5.49942E-13 9.71984E-24 2.03190E-23-4.59658E-24 8.90745E-29
 -1         8-3.66628E-13-3.66628E-13 2.45595E-23 2.70978E-23-3.07384E-24-3.08325E-24
 -1         9-3.66704E-13 1.72067E-10 1.52893E-16 1.03000E-16 7.23546E-19-1.11152E-16
 -1        10-3.67326E-13 1.72065E-10-1.52382E-16 1.04141E-16 5.38121E-19-1.11852E-16
 -1        11 4.54067E-11-5.69245E-08 2.25651E-11-4.20905E-11-1.68785E-17-1.61180E-11
 -1        12-6.86630E-11-8.57750E-08-3.38480E-11-6.31361E-11-2.55952E-17-2.41770E-11
 -1        13 2.58101E-10-5.50061E-13 2.29238E-16 1.01445E-15-1.66438E-16-3.39330E-24
 -1        14 1.72067E-10-3.66704E-13 1.53346E-16 1.02874E-16-1.11081E-16 4.54064E-19
 -1        15 8.45055E-11 8.45055E-11-2.26038E-11-1.34647E-11 8.07279E-12 8.07279E-12
 -1        16 1.30174E-10 2.14131E-10 6.07159E-20 2.85138E-11 8.07279E-12 8.07279E-12
 -1        17 2.13971E-11-5.70767E-08-1.12674E-11 3.62272E-11 8.06039E-12-1.21639E-14
 -1        18 3.19914E-11-8.56154E-08-1.69533E-11 1.17213E-10 1.20905E-11-1.82075E-14
 -1        19 2.58098E-10-5.50995E-13-2.30065E-16 1.01633E-15-1.67176E-16-1.43119E-24
 -1        20 1.72065E-10-3.67326E-13-1.52679E-16 1.04128E-16-1.11853E-16 7.55634E-19
 -1        21 2.14131E-10 1.30174E-10 3.65902E-19 2.85138E-11 8.07279E-12 8.07279E-12
 -1        22 2.59800E-10 2.59800E-10 2.26038E-11 7.04924E-11 8.07279E-12 8.07279E-12
 -1        23 1.50825E-10-5.70311E-08 1.13017E-11 3.61636E-11 8.06055E-12-1.22408E-14
 -1        24 2.26134E-10-8.55470E-08 1.69016E-11 1.17117E-10 1.20907E-11-1.83630E-14
 -1        25-8.53868E-08 6.81113E-11 3.38481E-11 6.25850E-11-2.41770E-11-1.00645E-21
 -1        26-5.69245E-08 4.54067E-11 2.25651E-11-4.20905E-11-1.61180E-11-1.69952E-17
 -1        27-5.70767E-08 2.13975E-11-1.12672E-11 3.62275E-11-1.22243E-14 8.06056E-12
 -1        28-5.70311E-08 1.50826E-10 1.13022E-11 3.61636E-11-1.21957E-14 8.06029E-12
 -1        29-7.65580E-17-2.13983E-16-4.12104E-17-6.87125E-17-2.43618E-16-2.43618E-16
 -1        30 4.73028E-16 1.24235E-15 3.34415E-16 3.84659E-16 6.94649E-16 6.94648E-16
 -1        31-1.71550E-07-1.37323E-10-6.76953E-11 1.25169E-10-4.83541E-11-2.02020E-21
 -1        32-8.57750E-08-6.86630E-11-3.38480E-11-6.31361E-11-2.41770E-11-2.56656E-17
 -1        33-8.56154E-08 3.19915E-11-1.69531E-11 1.17213E-10-1.83355E-14 1.20903E-11
 -1        34-8.55470E-08 2.26134E-10 1.69009E-11 1.17117E-10-1.83148E-14 1.20911E-11
 -1        35-6.58778E-17-3.07759E-17-1.88817E-16 1.75510E-17-3.45875E-16-3.45873E-16
 -1        36-6.95689E-19-2.62722E-16 2.60403E-16-1.31013E-16-9.44606E-16-9.44605E-16
 -1        37-1.09988E-12-1.09988E-12-7.34707E-23-1.36999E-27-2.72611E-24-2.69503E-24
 -1        38-5.49942E-13-5.49942E-13-9.65471E-24 2.03312E-23-1.35960E-24-5.97552E-24
 -1        39-5.50064E-13 2.58101E-10 2.28904E-16 1.01455E-15-8.22555E-19 1.65943E-16
 -1        40-5.50998E-13 2.58098E-10-2.29672E-16 1.01626E-15-7.91229E-19 1.64894E-16
 -1        41 6.81113E-11-8.53868E-08 3.38480E-11 6.25850E-11 8.50686E-17 2.41770E-11
 -1        42-1.37323E-10-1.71550E-07-6.76954E-11 1.25169E-10 1.70217E-16 4.83541E-11
 -1        43-5.49942E-13-5.49942E-13-9.64546E-24 2.02991E-23-5.95972E-24-1.34410E-24
 -1        44-3.66628E-13-3.66628E-13 1.16291E-23 2.70873E-23-3.98030E-24-3.97938E-24
 -1        45-3.66706E-13 1.72067E-10 1.52943E-16 1.02823E-16 1.75177E-19 1.10710E-16
 -1        46-3.67328E-13 1.72065E-10-1.52722E-16 1.03962E-16 1.06371E-20 1.10008E-16
 -1        47 4.54067E-11-5.69245E-08 2.25651E-11-4.20905E-11 3.98345E-17 1.61180E-11
 -1        48-6.86630E-11-8.57750E-08-3.38481E-11-6.31361E-11 5.95145E-17 2.41770E-11
 -1        49 2.58101E-10-5.50063E-13 2.29110E-16 1.01418E-15 1.65930E-16-8.17459E-19
 -1        50 1.72067E-10-3.66706E-13 1.52680E-16 1.03120E-16 1.10561E-16-9.09063E-20
 -1        51 8.45055E-11 8.45055E-11-2.26038E-11-1.34647E-11-8.07279E-12-8.07279E-12
 -1        52 1.30174E-10 2.14131E-10-2.78688E-19 2.85138E-11-8.07279E-12-8.07279E-12
 -1        53 2.13973E-11-5.70767E-08-1.12673E-11 3.62272E-11-8.06064E-12 1.21724E-14
 -1        54 3.19921E-11-8.56154E-08-1.69526E-11 1.17212E-10-1.20907E-11 1.82929E-14
 -1        55 2.58098E-10-5.50996E-13-2.29231E-16 1.01548E-15 1.65188E-16-7.12211E-19
 -1        56 1.72065E-10-3.67328E-13-1.52714E-16 1.03986E-16 1.09792E-16 2.80828E-19
 -1        57 2.14131E-10 1.30174E-10 1.26713E-19 2.85138E-11-8.07279E-12-8.07279E-12
 -1        58 2.59800E-10 2.59800E-10 2.26038E-11 7.04924E-11-8.07279E-12-8.07279E-12
 -1        59 1.50825E-10-5.70311E-08 1.13020E-11 3.61635E-11-8.06033E-12 1.22099E-14
 -1        60 2.26134E-10-8.55470E-08 1.69012E-11 1.17117E-10-1.20904E-11 1.83141E-14
 -1        61-8.53868E-08 6.81113E-11 3.38480E-11 6.25850E-11 2.41770E-11 8.52408E-17
 -1        62-5.69245E-08 4.54067E-11 2.25651E-11-4.20905E-11 1.61180E-11 3.98326E-17
 -1        63-5.70767E-08 2.13968E-11-1.12679E-11 3.62269E-11 1.22025E-14-8.06058E-12
 -1        64-5.70311E-08 1.50825E-10 1.13014E-11 3.61637E-11 1.22335E-14-8.06034E-12
 -1        65 1.09119E-16 2.19265E-16 1.44467E-16 5.50725E-17 1.75744E-16 1.68429E-16
 -1        66-5.66423E-16-1.18304E-15-7.05036E-16-3.08309E-16 3.46154E-16 2.35948E-17
 -1        67-1.71550E-07-1.37323E-10-6.76954E-11 1.25169E-10 4.83541E-11 1.70223E-16
 -1        68-8.57750E-08-6.86630E-11-3.38481E-11-6.31361E-11 2.41770E-11 5.94469E-17
 -1        69-8.56154E-08 3.19921E-11-1.69525E-11 1.17212E-10 1.83063E-14-1.20905E-11
 -1        70-8.55470E-08 2.26134E-10 1.69014E-11 1.17117E-10 1.83245E-14-1.20908E-11
 -1        71-1.81750E-16-3.01143E-16-3.04689E-16-5.96969E-17-2.87617E-16 1.29990E-17
 -1        72 8.64197E-16 1.75536E-15 1.12530E-15 4.45582E-16-2.94786E-16-3.16730E-16
 -3
    1PSTEP                         3           1           1          
  100CL  101 1.00000E-03          72                     0    1           1
 -4  TOSTRAIN    6    1
 -5  EXX         1    4    1    1
 -5  EYY         1    4    2    2
 -5  EZZ         1    4    3    3
 -5  EXY         1    4    1    2
 -5  EYZ         1    4    2    3
 -5  EZX         1    4    3    1
 -1         1-3.66628E-18-3.66628E-18 3.14253E-18-8.46277E-33 1.37046E-33 1.22235E-33
 -1         2-1.83314E-18-1.83314E-18 1.57126E-18 1.25834E-28 5.75639E-34-2.86489E-29
 -1         3-3.71335E-16 1.22984E-15-3.67928E-16 6.27978E-21-1.18156E-29-1.03267E-21
 -1         4-3.71335E-16 1.22983E-15-3.67925E-16 6.29037E-21-1.73335E-29-1.03916E-21
 -1         5 1.22257E-13-4.06749E-13 1.22045E-13 3.87431E-16-6.24089E-27-1.49667E-16
 -1         6 2.44514E-13-8.16612E-13 2.44945E-13 7.74857E-16-1.24996E-26-2.99335E-16
 -1         7-1.83314E-18-1.83314E-18 1.57126E-18 1.25784E-28-2.84550E-29 5.51413E-34
 -1         8-1.22209E-18-1.22209E-18 1.04751E-18 1.67748E-28-1.90285E-29-1.90868E-29
 -1         9-2.47557E-16 8.19891E-16-2.45286E-16 6.37618E-22 4.47909E-24-6.88086E-22
 -1        10-2.47557E-16 8.19884E-16-2.45284E-16 6.44685E-22 3.33123E-24-6.92420E-22
 -1        11 8.15047E-14-2.71166E-13 8.13633E-14-2.60560E-16-1.04486E-22-9.97783E-17
 -1        12 1.22257E-13-4.08306E-13 1.22473E-13-3.90842E-16-1.58447E-22-1.49667E-16
 -1        13 1.22984E-15-3.71335E-16-3.67928E-16 6.27992E-21-1.03033E-21-2.10061E-29
 -1        14 8.19891E-16-2.47557E-16-2.45286E-16 6.36842E-22-6.87642E-22 2.81087E-24
 -1        15 3.13976E-16 3.13976E-16-3.49082E-16-8.33527E-17 4.99744E-17 4.99744E-17
 -1        16 3.13976E-16 8.33710E-16-4.91866E-16 1.76514E-16 4.99744E-17 4.99744E-17
 -1        17 8.16562E-14-2.71808E-13 8.14539E-14 2.24285E-16 4.98976E-17-7.53032E-20
 -1        18 1.22484E-13-4.07714E-13 1.22181E-13 7.25633E-16 7.48460E-17-1.12718E-19
 -1        19 1.22983E-15-3.71335E-16-3.67925E-16 6.29157E-21-1.03490E-21-8.85978E-30
 -1        20 8.19884E-16-2.47557E-16-2.45284E-16 6.44605E-22-6.92424E-22 4.67773E-24
 -1        21 8.33710E-16 3.13976E-16-4.91866E-16 1.76514E-16 4.99744E-17 4.99744E-17
 -1        22 8.33710E-16 8.33710E-16-6.34650E-16 4.36381E-16 4.99744E-17 4.99744E-17
 -1        23 8.21751E-14-2.71808E-13 8.13114E-14 2.23891E-16 4.98986E-17-7.57795E-20
 -1        24 1.23263E-13-4.07714E-13 1.21967E-13 7.25042E-16 7.48470E-17-1.13680E-19
 -1        25-4.06749E-13 1.22257E-13 1.22045E-13 3.87431E-16-1.49667E-16-6.23040E-27
 -1        26-2.71166E-13 8.15047E-14 8.13633E-14-2.60560E-16-9.97783E-17-1.05209E-22
 -1        27-2.71808E-13 8.16562E-14 8.14539E-14 2.24287E-16-7.56771E-20 4.98987E-17
 -1        28-2.71808E-13 8.21751E-14 8.13114E-14 2.23891E-16-7.55003E-20 4.98970E-17
 -1        29-3.08286E-44-8.50726E-22 2.18819E-22-4.25363E-22-1.50811E-21-1.50811E-21
 -1        30-4.62428E-44 4.76244E-21-8.58081E-22 2.38122E-21 4.30021E-21 4.30020E-21
 -1        31-8.16612E-13 2.44514E-13 2.44945E-13 7.74857E-16-2.99335E-16-1.25060E-26
 -1        32-4.08306E-13 1.22257E-13 1.22473E-13-3.90842E-16-1.49667E-16-1.58883E-22
 -1        33-4.07714E-13 1.22484E-13 1.22181E-13 7.25635E-16-1.13510E-19 7.48445E-17
 -1        34-4.07714E-13 1.23263E-13 1.21967E-13 7.25043E-16-1.13382E-19 7.48499E-17
 -1        35-3.90962E-43 2.17298E-22-7.61051E-22 1.08649E-22-2.14113E-21-2.14112E-21
 -1        36-7.81925E-43-1.62207E-21 1.61633E-21-8.11034E-22-5.84756E-21-5.84756E-21
 -1        37-3.66628E-18-3.66628E-18 3.14253E-18-8.48088E-33-1.68759E-29-1.66835E-29
 -1        38-1.83314E-18-1.83314E-18 1.57126E-18 1.25860E-28-8.41656E-30-3.69913E-29
 -1        39-3.71335E-16 1.22984E-15-3.67928E-16 6.28054E-21-5.09201E-24 1.02726E-21
 -1        40-3.71335E-16 1.22983E-15-3.67925E-16 6.29114E-21-4.89808E-24 1.02077E-21
 -1        41 1.22257E-13-4.06749E-13 1.22045E-13 3.87431E-16 5.26615E-22 1.49667E-16
 -1        42 2.44514E-13-8.16612E-13 2.44945E-13 7.74857E-16 1.05373E-21 2.99335E-16
 -1        43-1.83314E-18-1.83314E-18 1.57126E-18 1.25661E-28-3.68935E-29-8.32059E-30
 -1        44-1.22209E-18-1.22209E-18 1.04751E-18 1.67684E-28-2.46400E-29-2.46342E-29
 -1        45-2.47557E-16 8.19891E-16-2.45286E-16 6.36522E-22 1.08443E-24 6.85347E-22
 -1        46-2.47557E-16 8.19884E-16-2.45284E-16 6.43572E-22 6.58488E-26 6.80999E-22
 -1        47 8.15047E-14-2.71166E-13 8.13633E-14-2.60560E-16 2.46595E-22 9.97783E-17
 -1        48 1.22257E-13-4.08306E-13 1.22473E-13-3.90842E-16 3.68423E-22 1.49667E-16
 -1        49 1.22984E-15-3.71335E-16-3.67928E-16 6.27829E-21 1.02718E-21-5.06046E-24
 -1        50 8.19891E-16-2.47557E-16-2.45286E-16 6.38365E-22 6.84423E-22-5.62753E-25
 -1        51 3.13976E-16 3.13976E-16-3.49082E-16-8.33527E-17-4.99744E-17-4.99744E-17
 -1        52 3.13976E-16 8.33710E-16-4.91866E-16 1.76514E-16-4.99744E-17-4.99744E-17
 -1        53 8.16562E-14-2.71808E-13 8.14539E-14 2.24285E-16-4.98992E-17 7.53562E-20
 -1        54 1.22484E-13-4.07714E-13 1.22181E-13 7.25632E-16-7.48473E-17 1.13246E-19
 -1        55 1.22983E-15-3.71335E-16-3.67925E-16 6.28632E-21 1.02259E-21-4.40892E-24
 -1        56 8.19884E-16-2.47557E-16-2.45284E-16 6.43721E-22 6.79667E-22 1.73846E-24
 -1        57 8.33710E-16 3.13976E-16-4.91866E-16 1.76514E-16-4.99744E-17-4.99744E-17
 -1        58 8.33710E-16 8.33710E-16-6.34650E-16 4.36381E-16-4.99744E-17-4.99744E-17
 -1        59 8.21751E-14-2.71808E-13 8.13114E-14 2.23891E-16-4.98973E-17 7.55878E-20
 -1        60 1.23263E-13-4.07714E-13 1.21967E-13 7.25041E-16-7.48455E-17 1.13378E-19
 -1        61-4.06749E-13 1.22257E-13 1.22045E-13 3.87431E-16 1.49667E-16 5.27681E-22
 -1        62-2.71166E-13 8.15047E-14 8.13633E-14-2.60560E-16 9.97783E-17 2.46583E-22
 -1        63-2.71808E-13 8.16562E-14 8.14539E-14 2.24283E-16 7.55420E-20-4.98989E-17
 -1        64-2.71808E-13 8.21751E-14 8.13114E-14 2.23892E-16 7.57341E-20-4.98973E-17
 -1        65 1.54143E-43 6.81850E-22 2.18819E-22 3.40925E-22 1.08794E-21 1.04266E-21
 -1        66 2.31214E-43-3.81715E-21-8.58081E-22-1.90858E-21 2.14286E-21 1.46063E-22
 -1        67-8.16612E-13 2.44514E-13 2.44945E-13 7.74857E-16 2.99335E-16 1.05376E-21
 -1        68-4.08306E-13 1.22257E-13 1.22473E-13-3.90842E-16 1.49667E-16 3.68005E-22
 -1        69-4.07714E-13 1.22484E-13 1.22181E-13 7.25630E-16 1.13329E-19-7.48462E-17
 -1        70-4.07714E-13 1.23263E-13 1.21967E-13 7.25043E-16 1.13442E-19-7.48481E-17
 -1        71 1.95481E-42-7.39104E-22-7.61051E-22-3.69552E-22-1.78048E-21 8.04701E-23
 -1        72 3.90962E-42 5.51673E-21 1.61633E-21 2.75836E-21-1.82487E-21-1.96071E-21
 -3
    1PSTEP                         4           2           1          
  100CL  102 2.00000E-03          72                     0    2           1
 -4  DISP        4    1
 -5  D1          1    2    1    0
 -5  D2          1    2    2    0
 -5  D3          1    2    3    0
 -5  ALL         1    2    0    0    1ALL
 -1         1 0.00000E+00 0.00000E+00 0.00000E+00
 -1         2-1.47603E-14 0.00000E+00 0.00000E+00
 -1         3-7.74914E-07 0.00000E+00 0.00000E+00
 -1         4-7.74915E-07 0.00000E+00 0.00000E+00
 -1         5-1.55313E-06 0.00000E+00 0.00000E+00
 -1         6-1.55289E-06 0.00000E+00 0.00000E+00
 -1         7 0.00000E+00-1.47603E-14 0.00000E+00
 -1         8-1.47603E-14-1.47603E-14 0.00000E+00
 -1         9-7.74914E-07 4.94132E-12 0.00000E+00
 -1        10-7.74915E-07 4.94114E-12 0.00000E+00
 -1        11-1.55313E-06-8.10710E-10 0.00000E+00
 -1        12-1.55289E-06-8.16932E-10 0.00000E+00
 -1        13 0.00000E+00-7.74914E-07 0.00000E+00
 -1        14 4.94132E-12-7.74914E-07 0.00000E+00
 -1        15 1.81356E-04 1.81356E-04 0.00000E+00
 -1        16 1.81356E-04 1.81356E-04 0.00000E+00
 -1        17 2.57872E-04-2.98477E-02 0.00000E+00
 -1        18 2.57872E-04-2.99683E-02 0.00000E+00
 -1        19 0.00000E+00-7.74915E-07 0.00000E+00
 -1        20 4.94114E-12-7.74915E-07 0.00000E+00
 -1        21 1.81356E-04 1.81356E-04 0.00000E+00
 -1        22 1.81356E-04 1.81356E-04 0.00000E+00
 -1        23 3.78481E-04-2.98477E-02 0.00000E+00
 -1        24 3.78481E-04-2.99683E-02 0.00000E+00
 -1        25 0.00000E+00-1.55313E-06 0.00000E+00
 -1        26-8.10710E-10-1.55313E-06 0.00000E+00
 -1        27-2.98477E-02 2.57872E-04 0.00000E+00
 -1        28-2.98477E-02 3.78481E-04 0.00000E+00
 -1        29-6.00000E-02-6.00000E-02 0.00000E+00
 -1        30-6.00000E-02-6.00000E-02 0.00000E+00
 -1        31 0.00000E+00-1.55289E-06 0.00000E+00
 -1        32-8.16932E-10-1.55289E-06 0.00000E+00
 -1        33-2.99683E-02 2.57872E-04 0.00000E+00
 -1        34-2.99683E-02 3.78481E-04 0.00000E+00
 -1        35-6.00000E-02-6.00000E-02 0.00000E+00
 -1        36-6.00000E-02-6.00000E-02 0.00000E+00
 -1        37 0.00000E+00 0.00000E+00 1.77123E-14
 -1        38-1.47603E-14 0.00000E+00 1.77123E-14
 -1        39-7.74914E-07 0.00000E+00-2.06381E-12
 -1        40-7.74915E-07 0.00000E+00-2.06375E-12
 -1        41-1.55313E-06 0.00000E+00 3.40614E-10
 -1        42-1.55289E-06 0.00000E+00 3.43007E-10
 -1        43 0.00000E+00-1.47603E-14 1.77123E-14
 -1        44-1.47603E-14-1.47603E-14 1.77123E-14
 -1        45-7.74914E-07 4.94132E-12-2.06381E-12
 -1        46-7.74915E-07 4.94114E-12-2.06375E-12
 -1        47-1.55313E-06-8.10710E-10 3.40614E-10
 -1        48-1.55289E-06-8.16932E-10 3.43007E-10
 -1        49 0.00000E+00-7.74914E-07-2.06381E-12
 -1        50 4.94132E-12-7.74914E-07-2.06381E-12
 -1        51 1.81356E-04 1.81356E-04-2.94891E-12
 -1        52 1.81356E-04 1.81356E-04-4.14952E-12
 -1        53 2.57872E-04-2.98477E-02 3.41367E-10
 -1        54 2.57872E-04-2.99683E-02 3.41371E-10
 -1        55 0.00000E+00-7.74915E-07-2.06375E-12
 -1        56 4.94114E-12-7.74915E-07-2.06375E-12
 -1        57 1.81356E-04 1.81356E-04-4.14952E-12
 -1        58 1.81356E-04 1.81356E-04-5.35013E-12
 -1        59 3.78481E-04-2.98477E-02 3.40171E-10
 -1        60 3.78481E-04-2.99683E-02 3.40174E-10
 -1        61 0.00000E+00-1.55313E-06 3.40614E-10
 -1        62-8.10710E-10-1.55313E-06 3.40614E-10
 -1        63-2.98477E-02 2.57872E-04 3.41367E-10
 -1        64-2.98477E-02 3.78481E-04 3.40171E-10
 -1        65-6.00000E-02-6.00000E-02 8.80115E-19
 -1        66-6.00000E-02-6.00000E-02-2.42270E-18
 -1        67 0.00000E+00-1.55289E-06 3.43007E-10
 -1        68-8.16932E-10-1.55289E-06 3.43007E-10
 -1        69-2.99683E-02 2.57872E-04 3.41371E-10
 -1        70-2.99683E-02 3.78481E-04 3.40174E-10
 -1        71-6.00000E-02-6.00000E-02-2.15101E-18
 -1        72-6.00000E-02-6.00000E-02 2.26134E-18
 -3
    1PSTEP                         5           2           1          
  100CL  102 2.00000E-03          72                     0    2           1
 -4  STRESS      6    1
 -5  SXX         1    4    1    1
 -5  SYY         1    4    2    2
 -5  SZZ         1    4    3    3
 -5  SXY         1    4    1    2
 -5  SYZ         1    4    2    3
 -5  SZX         1    4    3    1
 -1         1-8.85580E-12-8.85580E-12-1.41904E-22-5.86437E-27 6.96999E-28 8.36126E-28
 -1         2-4.42790E-12-4.42790E-12 4.15237E-23 8.33763E-23 4.62053E-28-1.91622E-23
 -1         3-4.42981E-12 1.03631E-09 3.72223E-15 1.63688E-14-1.06164E-23-2.67074E-15
 -1         4-4.44488E-12 1.03626E-09-3.72368E-15 1.63754E-14-9.78520E-24-2.67479E-15
 -1         5 2.71128E-10-1.70120E-07 1.35295E-10 2.49037E-10-1.63383E-20-9.66373E-11