    1C
    1UUSER                                                              
    1UDATE              13.june.2016                                    
    1UTIME              11:11:13                                        
    1UHOST                                                              
    1UPGM               CalculiX                                        
    1UDIR                                                               
    1UDBN                                                               
    1UMAT    1EL                                                        
    2C                            32                                     1
 -1         1 0.00000E+00 0.00000E+00 0.00000E+00
 -1         2 5.00000E+02 0.00000E+00 0.00000E+00
 -1         3 1.00000E+03 0.00000E+00 0.00000E+00
 -1         4 1.50000E+03 0.00000E+00 0.00000E+00
 -1         5 0.00000E+00 5.00000E+02 0.00000E+00
 -1         6 5.00000E+02 5.00000E+02 0.00000E+00
 -1         7 1.00000E+03 5.00000E+02 0.00000E+00
 -1         8 1.50000E+03 5.00000E+02 0.00000E+00
 -1         9 0.00000E+00 1.00000E+03 0.00000E+00
 -1        10 5.00000E+02 1.00000E+03 0.00000E+00
 -1        11 1.00000E+03 1.00000E+03 0.00000E+00
 -1        12 1.50000E+03 1.00000E+03 0.00000E+00
 -1        13 0.00000E+00 1.50000E+03 0.00000E+00
 -1        14 5.00000E+02 1.50000E+03 0.00000E+00
 -1        15 1.00000E+03 1.50000E+03 0.00000E+00
 -1        16 1.50000E+03 1.50000E+03 0.00000E+00
 -1        17 0.00000E+00 0.00000E+00 7.00000E+02
 -1        18 5.00000E+02 0.00000E+00 7.00000E+02
 -1        19 1.00000E+03 0.00000E+00 7.00000E+02
 -1        20 1.50000E+03 0.00000E+00 7.00000E+02
 -1        21 0.00000E+00 5.00000E+02 7.00000E+02
 -1        22 5.00000E+02 5.00000E+02 7.00000E+02
 -1        23 1.00000E+03 5.00000E+02 7.00000E+02
 -1        24 1.50000E+03 5.00000E+02 7.00000E+02
 -1        25 0.00000E+00 1.00000E+03 7.00000E+02
 -1        26 5.00000E+02 1.00000E+03 7.00000E+02
 -1        27 1.00000E+03 1.00000E+03 7.00000E+02
 -1        28 1.50000E+03 1.00000E+03 7.00000E+02
 -1        29 0.00000E+00 1.50000E+03 7.00000E+02
 -1        30 5.00000E+02 1.50000E+03 7.00000E+02
 -1        31 1.00000E+03 1.50000E+03 7.00000E+02
 -1        32 1.50000E+03 1.50000E+03 7.00000E+02
 -3
    3C                             9                                     1
 -1         1    1    0    1
 -2         1         2         6         5        17        18        22        21
 -1         2    1    0    1
 -2         2         3         7         6        18        19        23        22
 -1         3    1    0    1
 -2         3         4         8         7        19        20        24        23
 -1         4    1    0    1
 -2         5         6        10         9        21        22        26        25
 -1         5    1    0    1
 -2         6         7        11        10        22        23        27        26
 -1         6    1    0    1
 -2         7         8        12        11        23        24        28        27
 -1         7    1    0    1
 -2         9        10        14        13        25        26        30        29
 -1         8    1    0    1
 -2        10        11        15        14        26        27        31        30
 -1         9    1    0    1
 -2        11        12        16        15        27        28        32        31
 -3
    1PSTEP                         1           1           1          
  100CL  101 5.00000E-02          32                     0    1           1
 -4  DISP        4    1
 -5  D1          1    2    1    0
 -5  D2          1    2    2    0
 -5  D3          1    2    3    0
 -5  ALL         1    2    0    0    1ALL
 -1         1 0.00000E+00 0.00000E+00 0.00000E+00
 -1         2-3.33333E+00 0.00000E+00 0.00000E+00
 -1         3-6.66667E+00 0.00000E+00 0.00000E+00
 -1         4-1.00000E+01 0.00000E+00 0.00000E+00
 -1         5 0.00000E+00 9.95675E-01 0.00000E+00
 -1         6-3.33333E+00 9.95675E-01 0.00000E+00
 -1         7-6.66667E+00 9.95675E-01 0.00000E+00
 -1         8-1.00000E+01 9.95675E-01 0.00000E+00
 -1         9 0.00000E+00 1.99135E+00 0.00000E+00
 -1        10-3.33333E+00 1.99135E+00 0.00000E+00
 -1        11-6.66667E+00 1.99135E+00 0.00000E+00
 -1        12-1.00000E+01 1.99135E+00 0.00000E+00
 -1        13 0.00000E+00 2.98703E+00 0.00000E+00
 -1        14-3.33333E+00 2.98703E+00 0.00000E+00
 -1        15-6.66667E+00 2.98703E+00 0.00000E+00
 -1        16-1.00000E+01 2.98703E+00 0.00000E+00
 -1        17 0.00000E+00 0.00000E+00 1.39395E+00
 -1        18-3.33333E+00 0.00000E+00 1.39395E+00
 -1        19-6.66667E+00 0.00000E+00 1.39395E+00
 -1        20-1.00000E+01 0.00000E+00 1.39395E+00
 -1        21 0.00000E+00 9.95675E-01 1.39395E+00
 -1        22-3.33333E+00 9.95675E-01 1.39395E+00
 -1        23-6.66667E+00 9.95675E-01 1.39395E+00
 -1        24-1.00000E+01 9.95675E-01 1.39395E+00
 -1        25 0.00000E+00 1.99135E+00 1.39395E+00
 -1        26-3.33333E+00 1.99135E+00 1.39395E+00
 -1        27-6.66667E+00 1.99135E+00 1.39395E+00
 -1        28-1.00000E+01 1.99135E+00 1.39395E+00
 -1        29 0.00000E+00 2.98703E+00 1.39395E+00
 -1        30-3.33333E+00 2.98703E+00 1.39395E+00
 -1        31-6.66667E+00 2.98703E+00 1.39395E+00
 -1        32-1.00000E+01 2.98703E+00 1.39395E+00
 -3
    1PSTEP                         2           1           1          
  100CL  101 5.00000E-02          32                     0    1           1
 -4  STRESS      6    1
 -5  SXX         1    4    1    1
 -5  SYY         1    4    2    2
 -5  SZZ         1    4    3    3
 -5  SXY         1    4    1    2
 -5  SYZ         1    4    2    3
 -5  SZX         1    4    3    1
 -1         1-1.38047E+03 4.56203E-05 4.56203E-05-3.75817E-14 4.29566E-15 1.04049E-14
 -1         2-1.38047E+03 4.56203E-05 4.56203E-05-1.21709E-13 7.09205E-15 3.16643E-14
 -1         3-1.38047E+03 4.56203E-05 4.56203E-05-5.83683E-14-1.11655E-14 2.10207E-13
 -1         4-1.38047E+03 4.56203E-05 4.56203E-05 2.42721E-13 3.45644E-15-3.89829E-13
 -1         5-1.38047E+03 4.56203E-05 4.56203E-05 5.82811E-14-4.63095E-14-1.57797E-14
 -1         6-1.38047E+03 4.56203E-05 4.56203E-05-2.15796E-14-3.22957E-14 2.20133E-13
 -1         7-1.38047E+03 4.56203E-05 4.56203E-05 9.53012E-14-3.85566E-14 2.11621E-13
 -1         8-1.38047E+03 4.56203E-05 4.56203E-05-8.53908E-14 4.79990E-14-1.50033E-13
 -1         9-1.38047E+03 4.56203E-05 4.56203E-05-1.72331E-14 6.36409E-14-2.79466E-14
 -1        10-1.38047E+03 4.56203E-05 4.56203E-05 2.95923E-14 1.69528E-14 1.27210E-13
 -1        11-1.38047E+03 4.56203E-05 4.56203E-05 3.23156E-13 3.86377E-14 1.92639E-13
 -1        12-1.38047E+03 4.56203E-05 4.56203E-05 1.52990E-13 7.34686E-14 2.59624E-13
 -1        13-1.38047E+03 4.56203E-05 4.56203E-05-1.53455E-14-1.64535E-13 2.58081E-14
 -1        14-1.38047E+03 4.56203E-05 4.56203E-05 2.35533E-13-1.39335E-13 2.34119E-15
 -1        15-1.38047E+03 4.56203E-05 4.56203E-05 4.13524E-13 9.05685E-14-1.29942E-13
 -1        16-1.38047E+03 4.56203E-05 4.56203E-05 9.25748E-14 1.32475E-13 2.99158E-13
 -1        17-1.38047E+03 4.56203E-05 4.56203E-05 4.77744E-15 4.75957E-14 4.53982E-15
 -1        18-1.38047E+03 4.56203E-05 4.56203E-05-6.84482E-14-9.25721E-14 1.24176E-13
 -1        19-1.38047E+03 4.56203E-05 4.56203E-05-4.09010E-13 9.11892E-14 3.31977E-14
 -1        20-1.38047E+03 4.56203E-05 4.56203E-05-4.23961E-15 1.66240E-14-3.31130E-13
 -1        21-1.38047E+03 4.56203E-05 4.56203E-05-2.20707E-14-2.15419E-15-1.02565E-13
 -1        22-1.38047E+03 4.56203E-05 4.56203E-05 1.19957E-13-4.14940E-14 1.87783E-14
 -1        23-1.38047E+03 4.56203E-05 4.56203E-05-1.43342E-13 5.08423E-14 3.43247E-14
 -1        24-1.38047E+03 4.56203E-05 4.56203E-05 1.37713E-14-2.54218E-14 9.02058E-14
 -1        25-1.38047E+03 4.56203E-05 4.56203E-05-1.05829E-14 7.07467E-14-1.79598E-14
 -1        26-1.38047E+03 4.56203E-05 4.56203E-05 1.27014E-13 1.11151E-14 1.23189E-13
 -1        27-1.38047E+03 4.56203E-05 4.56203E-05-1.51589E-13 7.12250E-14 1.95296E-13
 -1        28-1.38047E+03 4.56203E-05 4.56203E-05-6.40566E-14 6.45244E-14-1.62832E-14
 -1        29-1.38047E+03 4.56203E-05 4.56203E-05-2.81227E-14-1.58114E-14-8.92839E-14
 -1        30-1.38047E+03 4.56203E-05 4.56203E-05 7.13192E-14-1.02486E-13-6.78353E-14
 -1        31-1.38047E+03 4.56203E-05 4.56203E-05-3.11493E-13 1.81391E-13 1.19082E-13
 -1        32-1.38047E+03 4.56203E-05 4.56203E-05-2.04904E-14 1.34801E-13-8.92370E-16
 -3
    1PSTEP                         3           1           1          
  100CL  101 5.00000E-02          32                     0    1           1
 -4  TOSTRAIN    6    1
 -5  EXX         1    4    1    1
 -5  EYY         1    4    2    2
 -5  EZZ         1    4    3    3
 -5  EXY         1    4    1    2
 -5  EYZ         1    4    2    3
 -5  EZX         1    4    3    1
 -1         1-6.64418E-03 1.99325E-03 1.99325E-03-2.33860E-19 2.64149E-20 6.45355E-20
 -1         2-6.64418E-03 1.99325E-03 1.99325E-03-7.54941E-19 4.36105E-20 1.96522E-19
 -1         3-6.64418E-03 1.99325E-03 1.99325E-03-3.61984E-19-6.86591E-20 1.30403E-18
 -1         4-6.64418E-03 1.99325E-03 1.99325E-03 1.50493E-18 2.12544E-20-2.41796E-18
 -1         5-6.64418E-03 1.99325E-03 1.99325E-03 3.67741E-19-2.84767E-19-9.74193E-20
 -1         6-6.64418E-03 1.99325E-03 1.99325E-03-1.33887E-19-1.98593E-19 1.36573E-18
 -1         7-6.64418E-03 1.99325E-03 1.99325E-03 5.87576E-19-2.37092E-19 1.31245E-18
 -1         8-6.64418E-03 1.99325E-03 1.99325E-03-5.30480E-19 2.95156E-19-9.31122E-19
 -1         9-6.64418E-03 1.99325E-03 1.99325E-03-1.09460E-19 3.91341E-19-1.73647E-19
 -1        10-6.64418E-03 1.99325E-03 1.99325E-03 1.77399E-19 1.04247E-19 7.88979E-19
 -1        11-6.64418E-03 1.99325E-03 1.99325E-03 1.99966E-18 2.37591E-19 1.19490E-18
 -1        12-6.64418E-03 1.99325E-03 1.99325E-03 9.49090E-19 4.51774E-19 1.61025E-18
 -1        13-6.64418E-03 1.99325E-03 1.99325E-03-9.47179E-20-1.01176E-18 1.59373E-19
 -1        14-6.64418E-03 1.99325E-03 1.99325E-03 1.45793E-18-8.56801E-19 1.41589E-20
 -1        15-6.64418E-03 1.99325E-03 1.99325E-03 2.56174E-18 5.56924E-19-8.05855E-19
 -1        16-6.64418E-03 1.99325E-03 1.99325E-03 5.74223E-19 8.14618E-19 1.85594E-18
 -1        17-6.64418E-03 1.99325E-03 1.99325E-03 2.90245E-20 2.92676E-19 2.83933E-20
 -1        18-6.64418E-03 1.99325E-03 1.99325E-03-4.24541E-19-5.69245E-19 7.64282E-19
 -1        19-6.64418E-03 1.99325E-03 1.99325E-03-2.53703E-18 5.60741E-19 1.97841E-19
 -1        20-6.64418E-03 1.99325E-03 1.99325E-03-2.69985E-20 1.02224E-19-2.05794E-18
 -1        21-6.64418E-03 1.99325E-03 1.99325E-03-1.39272E-19-1.32465E-20-6.48368E-19
 -1        22-6.64418E-03 1.99325E-03 1.99325E-03 7.42979E-19-2.55155E-19 1.10448E-19
 -1        23-6.64418E-03 1.99325E-03 1.99325E-03-8.87299E-19 3.12640E-19 2.11784E-19
 -1        24-6.64418E-03 1.99325E-03 1.99325E-03 8.88777E-20-1.56324E-19 5.57162E-19
 -1        25-6.64418E-03 1.99325E-03 1.99325E-03-6.47391E-20 4.35036E-19-1.13842E-19
 -1        26-6.64418E-03 1.99325E-03 1.99325E-03 7.84153E-19 6.83490E-20 7.61328E-19
 -1        27-6.64418E-03 1.99325E-03 1.99325E-03-9.44656E-19 4.37977E-19 1.20619E-18
 -1        28-6.64418E-03 1.99325E-03 1.99325E-03-3.97798E-19 3.96774E-19-1.08239E-19
 -1        29-6.64418E-03 1.99325E-03 1.99325E-03-1.74565E-19-9.72277E-20-5.62032E-19
 -1        30-6.64418E-03 1.99325E-03 1.99325E-03 4.44494E-19-6.30208E-19-4.25954E-19
 -1        31-6.64418E-03 1.99325E-03 1.99325E-03-1.92995E-18 1.11541E-18 7.35371E-19
 -1        32-6.64418E-03 1.99325E-03 1.99325E-03-1.27098E-19 8.28916E-19-9.92658E-21
 -3
    1PSTEP                         4           2           1          
  100CL  102 1.00000E-01          32                     0    2           1
 -4  DISP        4    1
 -5  D1          1    2    1    0
 -5  D2          1    2    2    0
 -5  D3          1    2    3    0
 -5  ALL         1    2    0    0    1ALL
 -1         1 0.00000E+00 0.00000E+00 0.00000E+00
 -1         2-6.66667E+00 0.00000E+00 0.00000E+00
 -1         3-1.33333E+01 0.00000E+00 0.00000E+00
 -1         4-2.00000E+01 0.00000E+00 0.00000E+00
 -1         5 0.00000E+00 1.98274E+00 0.00000E+00
 -1         6-6.66667E+00 1.98274E+00 0.00000E+00
 -1         7-1.33333E+01 1.98274E+00 0.00000E+00
 -1         8-2.00000E+01 1.98274E+00 0.00000E+00
 -1         9 0.00000E+00 3.96547E+00 0.00000E+00
 -1        10-6.66667E+00 3.96547E+00 0.00000E+00
 -1        11-1.33333E+01 3.96547E+00 0.00000E+00
 -1        12-2.00000E+01 3.96547E+00 0.00000E+00
 -1        13 0.00000E+00 5.94821E+00 0.00000E+00
 -1        14-6.66667E+00 5.94821E+00 0.00000E+00
 -1        15-1.33333E+01 5.94821E+00 0.00000E+00
 -1        16-2.00000E+01 5.94821E+00 0.00000E+00
 -1        17 0.00000E+00 0.00000E+00 2.77583E+00
 -1        18-6.66667E+00 0.00000E+00 2.77583E+00
 -1        19-1.33333E+01 0.00000E+00 2.77583E+00
 -1        20-2.00000E+01 0.00000E+00 2.77583E+00
 -1        21 0.00000E+00 1.98274E+00 2.77583E+00
 -1        22-6.66667E+00 1.98274E+00 2.77583E+00
 -1        23-1.33333E+01 1.98274E+00 2.77583E+00
 -1        24-2.00000E+01 1.98274E+00 2.77583E+00
 -1        25 0.00000E+00 3.96547E+00 2.77583E+00
 -1        26-6.66667E+00 3.96547E+00 2.77583E+00
 -1        27-1.33333E+01 3.96547E+00 2.77583E+00
 -1        28-2.00000E+01 3.96547E+00 2.77583E+00
 -1        29 0.00000E+00 5.94821E+00 2.77583E+00
 -1        30-6.66667E+00 5.94821E+00 2.77583E+00
 -1        31-1.33333E+01 5.94821E+00 2.77583E+00
 -1        32-2.00000E+01 5.94821E+00 2.77583E+00
 -3
    1PSTEP                         5           2           1          
  100CL  102 1.00000E-01          32                     0    2           1
 -4  STRESS      6    1
 -5  SXX         1    4    1    1
 -5  SYY         1    4    2    2
 -5  SZZ         1    4    3    3
 -5  SXY         1    4    1    2
 -5  SYZ         1    4    2    3
 -5  SZX         1    4    3    1
 -1         1-2.72250E+03-7.64372E-13-8.79595E-13-4.81572E-14-2.56592E-14 1.22260E-14
 -1         2-2.72250E+03-3.18915E-13-3.76526E-13 3.46814E-14 5.62618E-14 2.12006E-13
 -1         3-2.72250E+03-6.54790E-13-5.91528E-13 1.83166E-14-4.33758E-14 6.40512E-13
 -1         4-2.72250E+03-9.26117E-14-5.64796E-13 4.43350E-13 6.00519E-14-1.48523E-12
 -1         5-2.72250E+03-4.55228E-13 9.00031E-14 7.94002E-14-2.00286E-14 2.96720E-14
 -1         6-2.72250E+03-1.88258E-13-2.77501E-13 2.75255E-14-9.25191E-14 1.96351E-13
 -1         7-2.72250E+03-6.12621E-13-5.33921E-13 2.96001E-13-7.48894E-14 1.56560E-13
 -1         8-2.72250E+03-9.41235E-14-2.30432E-13-2.38783E-13 1.16068E-13-4.44825E-14
 -1         9-2.72250E+03-3.82181E-13-3.45660E-13 1.61282E-13 8.26039E-14-8.40562E-14
 -1        10-2.72250E+03 4.09687E-13-2.59736E-14-2.12909E-13-1.62329E-13 4.01283E-13
 -1        11-2.72250E+03-4.16638E-13 3.10665E-13 1.70259E-13 3.37701E-14 2.45979E-13
 -1        12-2.72250E+03 2.45886E-13-2.51518E-13 2.03628E-13 1.79753E-13 5.40398E-13
 -1        13-2.72250E+03 1.01743E-12 9.21785E-13 8.36802E-15-3.75447E-13 7.57004E-14
 -1        14-2.72250E+03 5.97202E-13 7.71543E-13-4.69399E-14-5.94465E-14-2.33930E-13
 -1        15-2.72250E+03 1.69470E-14-1.72825E-13 2.46498E-14 1.68697E-13 2.58019E-13
 -1        16-2.72250E+03 1.88275E-13-3.14780E-13 6.83777E-13 3.98661E-13 4.43084E-13
 -1        17-2.72250E+03 1.95787E-14 4.49592E-13-4.67208E-14 5.86699E-14-6.23867E-15
 -1        18-2.72250E+03-2.45868E-13-3.08613E-14 2.39686E-14-7.96694E-14 4.01327E-13
 -1        19-2.72250E+03-9.77549E-15-4.62966E-14 1.56678E-13 1.02118E-13-4.19847E-13
 -1        20-2.72250E+03-7.44793E-13-4.72175E-13-2.86928E-13-2.43131E-13-2.46757E-13
 -1        21-2.72250E+03-3.35871E-13-3.35871E-13-8.08991E-14-6.97712E-14-1.01469E-13
 -1        22-2.72250E+03-5.60662E-13-4.63704E-13-1.42959E-13-2.83488E-14 1.07005E-13
 -1        23-2.72250E+03-2.93695E-13-2.88044E-13-8.24052E-14 1.04627E-13 1.57894E-14
 -1        24-2.72250E+03-5.39576E-13-7.02622E-13 1.20853E-13 1.27850E-13-3.28930E-13
 -1        25-2.72250E+03-6.08493E-13-8.17849E-13-1.18504E-13 3.87236E-14 2.02742E-13
 -1        26-2.72250E+03-7.84149E-13-2.38917E-13 1.37888E-13-1.76982E-13 2.12381E-13
 -1        27-2.72250E+03 1.65117E-13-3.14783E-13-3.11118E-13-9.88252E-14 1.57205E-13
 -1        28-2.72250E+03-8.64155E-13-1.04264E-12 4.14504E-14 1.42581E-13-2.01360E-13
 -1        29-2.72250E+03-2.72618E-13 3.37392E-13 2.78294E-13 7.52762E-14-2.32037E-13
 -1        30-2.72250E+03-3.40019E-13-1.38982E-12-6.37517E-15 2.42279E-14-2.48687E-13
 -1        31-2.72250E+03-7.35013E-13-1.11720E-12-6.04046E-14-2.15996E-14 5.45609E-13
 -1        32-2.72250E+03 9.56537E-14-8.60016E-13 2.47016E-13 3.57001E-14-9.62652E-14
 -3
    1PSTEP                         6           2           1          
  100CL  102 1.00000E-01          32                     0    2           1
 -4  TOSTRAIN    6    1
 -5  EXX         1    4    1    1
 -5  EYY         1    4    2    2
 -5  EZZ         1    4    3    3
 -5  EXY         1    4    1    2
 -5  EYZ         1    4    2    3
 -5  EZX         1    4    3    1
 -1         1-1.32439E-02 3.97317E-03 3.97317E-03-2.99548E-19-1.56725E-19 7.67815E-20
 -1         2-1.32439E-02 3.97317E-03 3.97317E-03 2.15544E-19 3.43644E-19 1.31827E-18
 -1         3-1.32439E-02 3.97317E-03 3.97317E-03 1.14089E-19-2.64937E-19 3.98209E-18
 -1         4-1.32439E-02 3.97317E-03 3.97317E-03 2.75569E-18 3.66793E-19-9.22862E-18
 -1         5-1.32439E-02 3.97317E-03 3.97317E-03 5.06639E-19-1.22333E-19 1.86463E-19
 -1         6-1.32439E-02 3.97317E-03 3.97317E-03 1.71192E-19-5.65101E-19 1.22132E-18
 -1         7-1.32439E-02 3.97317E-03 3.97317E-03 1.82637E-18-4.57420E-19 9.71884E-19
 -1         8-1.32439E-02 3.97317E-03 3.97317E-03-1.49768E-18 7.08936E-19-2.78672E-19
 -1         9-1.32439E-02 3.97317E-03 3.97317E-03 1.02649E-18 5.04540E-19-5.27039E-19
 -1        10-1.32439E-02 3.97317E-03 3.97317E-03-1.32368E-18-9.91498E-19 2.49167E-18
 -1        11-1.32439E-02 3.97317E-03 3.97317E-03 1.03552E-18 2.06265E-19 1.52763E-18
 -1        12-1.32439E-02 3.97317E-03 3.97317E-03 1.24527E-18 1.09792E-18 3.35633E-18
 -1        13-1.32439E-02 3.97317E-03 3.97317E-03 5.00809E-20-2.29321E-18 4.71759E-19
 -1        14-1.32439E-02 3.97317E-03 3.97317E-03-3.24171E-19-3.63095E-19-1.45278E-18
 -1        15-1.32439E-02 3.97317E-03 3.97317E-03 1.36100E-19 1.03039E-18 1.60483E-18
 -1        16-1.32439E-02 3.97317E-03 3.97317E-03 4.27845E-18 2.43500E-18 2.75530E-18
 -1        17-1.32439E-02 3.97317E-03 3.97317E-03-2.90304E-19 3.58352E-19-3.85242E-20
 -1        18-1.32439E-02 3.97317E-03 3.97317E-03 1.49082E-19-4.86615E-19 2.48143E-18
 -1        19-1.32439E-02 3.97317E-03 3.97317E-03 9.73574E-19 6.23730E-19-2.63018E-18
 -1        20-1.32439E-02 3.97317E-03 3.97317E-03-1.78380E-18-1.48503E-18-1.54934E-18
 -1        21-1.32439E-02 3.97317E-03 3.97317E-03-5.06317E-19-4.26158E-19-6.56312E-19
 -1        22-1.32439E-02 3.97317E-03 3.97317E-03-8.94753E-19-1.73153E-19 6.53933E-19
 -1        23-1.32439E-02 3.97317E-03 3.97317E-03-5.02482E-19 6.39053E-19 7.66873E-20
 -1        24-1.32439E-02 3.97317E-03 3.97317E-03 7.79430E-19 7.80902E-19-2.09067E-18
 -1        25-1.32439E-02 3.97317E-03 3.97317E-03-7.46882E-19 2.36521E-19 1.28838E-18
 -1        26-1.32439E-02 3.97317E-03 3.97317E-03 8.51290E-19-1.08100E-18 1.33435E-18
 -1        27-1.32439E-02 3.97317E-03 3.97317E-03-1.92435E-18-6.03618E-19 9.47061E-19
 -1        28-1.32439E-02 3.97317E-03 3.97317E-03 2.77133E-19 8.70874E-19-1.31187E-18
 -1        29-1.32439E-02 3.97317E-03 3.97317E-03 1.80396E-18 4.59782E-19-1.48456E-18
 -1        30-1.32439E-02 3.97317E-03 3.97317E-03-3.43984E-21 1.47982E-19-1.59098E-18
 -1        31-1.32439E-02 3.97317E-03 3.97317E-03-3.33914E-19-1.31929E-19 3.35721E-18
 -1        32-1.32439E-02 3.97317E-03 3.97317E-03 1.62021E-18 2.18054E-19-6.17497E-19
 -3
    1PSTEP                         7           3           1          
  100CL  103 1.50000E-01          32                     0    3           1
 -4  DISP        4    1
 -5  D1          1    2    1    0
 -5  D2          1    2    2    0
 -5  D3          1    2    3    0
 -5  ALL         1    2    0    0    1ALL
 -1         1 0.00000E+00 0.00000E+00 0.00000E+00
 -1         2-1.00000E+01 0.00000E+00 0.00000E+00
 -1         3-2.00000E+01 0.00000E+00 0.00000E+00
 -1         4-3.00000E+01 0.00000E+00 0.00000E+00
 -1         5 0.00000E+00 2.96123E+00 0.00000E+00
 -1         6-1.00000E+01 2.96123E+00 0.00000E+00
 -1         7-2.00000E+01 2.96123E+00 0.00000E+00
 -1         8-3.00000E+01 2.96123E+00 0.00000E+00
 -1         9 0.00000E+00 5.92246E+00 0.00000E+00
 -1        10-1.00000E+01 5.92246E+00 0.00000E+00
 -1        11-2.00000E+01 5.92246E+00 0.00000E+00
 -1        12-3.00000E+01 5.92246E+00 0.00000E+00
 -1        13 0.00000E+00 8.88369E+00 0.00000E+00
 -1        14-1.00000E+01 8.88369E+00 0.00000E+00
 -1        15-2.00000E+01 8.88369E+00 0.00000E+00
 -1        16-3.00000E+01 8.88369E+00 0.00000E+00
 -1        17 0.00000E+00 0.00000E+00 4.14572E+00
 -1        18-1.00000E+01 0.00000E+00 4.14572E+00
 -1        19-2.00000E+01 0.00000E+00 4.14572E+00
 -1        20-3.00000E+01 0.00000E+00 4.14572E+00
 -1        21 0.00000E+00 2.96123E+00 4.14572E+00
 -1        22-1.00000E+01 2.96123E+00 4.14572E+00
 -1        23-2.00000E+01 2.96123E+00 4.14572E+00
 -1        24-3.00000E+01 2.96123E+00 4.14572E+00
 -1        25 0.00000E+00 5.92246E+00 4.14572E+00
 -1        26-1.00000E+01 5.92246E+00 4.14572E+00
 -1        27-2.00000E+01 5.92246E+00 4.14572E+00
 -1        28-3.00000E+01 5.92246E+00 4.14572E+00
 -1        29 0.00000E+00 8.88369E+00 4.14572E+00
 -1        30-1.00000E+01 8.88369E+00 4.14572E+00
 -1        31-2.00000E+01 8.88369E+00 4.14572E+00
 -1        32-3.00000E+01 8.88369E+00 4.14572E+00
 -3
    1PSTEP                         8           3           1          
  100CL  103 1.50000E-01          32                     0    3           1
 -4  STRESS      6    1
 -5  SXX         1    4    1    1
 -5  SYY         1    4    2    2
 -5  SZZ         1    4    3    3
 -5  SXY         1    4    1    2
 -5  SYZ         1    4    2    3
 -5  SZX         1    4    3    1
 -1         1-4.02684E+03-1.29881E-12-8.65876E-13 1.23367E-14-5.70589E-14 6.92109E-15
 -1         2-4.02684E+03-8.29107E-13-7.44180E-13-2.90551E-13 1.03882E-14 7.16435E-13
 -1         3-4.02684E+03 2.69183E-14-6.78501E-14-4.99036E-13 2.41439E-14-8.18277E-13
 -1         4-4.02684E+03 8.54507E-13 4.32957E-13 4.45328E-13-5.62916E-14-5.08620E-13
 -1         5-4.02684E+03-3.84786E-13-5.80035E-14 1.02510E-13-9.30418E-14-9.81372E-15
 -1         6-4.02684E+03 7.92351E-14-1.71161E-13 4.68851E-14-4.79889E-14 5.52398E-14
 -1         7-4.02684E+03 3.70011E-13 1.98089E-13-4.28295E-14-2.79823E-14 8.46456E-13
 -1         8-4.02684E+03 8.38962E-13 5.60332E-13 3.35269E-13-5.22709E-14-8.50289E-13
 -1         9-4.02684E+03-6.12624E-13-4.59852E-13 3.00767E-13-3.36283E-14 6.91839E-15
 -1        10-4.02684E+03-2.90017E-14 5.38323E-13 9.46487E-15-3.77187E-13-6.26715E-14
 -1        11-4.02684E+03-3.85549E-13-4.59856E-13-6.69641E-14-1.30463E-13 6.12008E-13
 -1        12-4.02684E+03 3.01395E-13-2.99859E-13 7.88747E-14 1.34396E-13 2.64403E-13
 -1        13-4.02684E+03-3.48012E-13-1.01296E-12 5.05309E-14-6.91661E-13 6.06326E-14
 -1        14-4.02684E+03-1.07249E-12-5.50467E-13-3.48318E-13 4.14032E-13-3.90384E-13
 -1        15-4.02684E+03-4.32938E-13 1.42921E-13-2.92340E-13 2.58720E-15 2.11795E-12
 -1        16-4.02684E+03-9.70496E-13-1.08650E-12 3.99617E-13 3.35163E-13-2.11587E-13
 -1        17-4.02684E+03 3.48021E-13 2.32014E-13-4.63754E-15-3.33245E-15-7.72777E-14
 -1        18-4.02684E+03 1.68317E-13 3.26787E-13-2.95979E-13 3.39509E-14 4.52713E-13
 -1        19-4.02684E+03-2.69183E-14-8.44638E-13 1.01699E-12-1.59137E-14-3.08196E-14
 -1        20-4.02684E+03-4.83721E-13-8.31535E-15 2.40262E-13-3.02393E-13-1.73954E-12
 -1        21-4.02684E+03-3.38156E-13-5.79988E-14 5.75801E-14-1.58994E-13-1.24798E-13
 -1        22-4.02684E+03 4.24609E-14 4.28012E-13-1.68366E-13 4.46827E-14 2.96464E-13
 -1        23-4.02684E+03 3.93322E-13-2.63853E-13-1.22787E-13 1.86513E-14 4.52056E-13
 -1        24-4.02684E+03-1.17559E-12-1.08650E-12-5.94255E-14-2.44578E-13-4.88111E-13
 -1        25-4.02684E+03 4.92473E-13 4.71239E-13-7.81532E-14-2.22498E-13 8.49779E-14
 -1        26-4.02684E+03-2.39775E-13-1.71159E-13 2.39306E-13-1.84092E-13 1.39183E-13
 -1        27-4.02684E+03-9.76199E-14-1.58470E-13-2.93050E-13 3.10936E-13 9.05423E-13
 -1        28-4.02684E+03-7.03244E-13-7.08933E-13-1.02495E-14-3.17221E-13-4.14958E-13
 -1        29-4.02684E+03 5.38551E-14 2.32023E-13 1.41523E-13-1.71029E-13 1.30655E-13
 -1        30-4.02684E+03 1.25789E-12 1.01033E-12-1.09783E-13 2.92903E-14 9.82046E-14
 -1        31-4.02684E+03-4.32933E-13-1.85384E-13-4.99024E-13 2.19374E-14 2.13978E-13
 -1        32-4.02684E+03-7.30166E-13-6.99086E-13-4.30116E-13 3.56501E-13 1.51827E-12
 -3
    1PSTEP                         9           3           1          
  100CL  103 1.50000E-01          32                     0    3           1
 -4  TOSTRAIN    6    1
 -5  EXX         1    4    1    1
 -5  EYY         1    4    2    2
 -5  EZZ         1    4    3    3
 -5  EXY         1    4    1    2
 -5  EYZ         1    4    2    3
 -5  EZX         1    4    3    1
 -1         1-1.97992E-02 5.93976E-03 5.93976E-03 8.29283E-20-3.46157E-19 4.38291E-20
 -1         2-1.97992E-02 5.93976E-03 5.93976E-03-1.80625E-18 6.30220E-20 4.46216E-18
 -1         3-1.97992E-02 5.93976E-03 5.93976E-03-3.10378E-18 1.46473E-19-5.09416E-18
 -1         4-1.97992E-02 5.93976E-03 5.93976E-03 2.78069E-18-3.41502E-19-3.16543E-18
 -1         5-1.97992E-02 5.93976E-03 5.93976E-03 6.75996E-19-5.64454E-19-6.04857E-20
 -1         6-1.97992E-02 5.93976E-03 5.93976E-03 3.11535E-19-2.91132E-19 3.42233E-19
 -1         7-1.97992E-02 5.93976E-03 5.93976E-03-2.58438E-19-1.69759E-19 5.26878E-18
 -1         8-1.97992E-02 5.93976E-03 5.93976E-03 2.10280E-18-3.17110E-19-5.29517E-18
 -1         9-1.97992E-02 5.93976E-03 5.93976E-03 1.95160E-18-2.04012E-19 4.22702E-20
 -1        10-1.97992E-02 5.93976E-03 5.93976E-03 8.20236E-20-2.28826E-18-3.92466E-19
 -1        11-1.97992E-02 5.93976E-03 5.93976E-03-4.54422E-19-7.91477E-19 3.81128E-18
 -1        12-1.97992E-02 5.93976E-03 5.93976E-03 4.48820E-19 8.15338E-19 1.65049E-18
 -1        13-1.97992E-02 5.93976E-03 5.93976E-03 3.03664E-19-4.19608E-18 3.77073E-19
 -1        14-1.97992E-02 5.93976E-03 5.93976E-03-2.16937E-18 2.51179E-18-2.43105E-18
 -1        15-1.97992E-02 5.93976E-03 5.93976E-03-1.83818E-18 1.56957E-20 1.31910E-17
 -1        16-1.97992E-02 5.93976E-03 5.93976E-03 2.44269E-18 2.03332E-18-1.31342E-18
 -1        17-1.97992E-02 5.93976E-03 5.93976E-03-2.60548E-20-2.02169E-20-5.19166E-19
 -1        18-1.97992E-02 5.93976E-03 5.93976E-03-1.84169E-18 2.05969E-19 2.78114E-18
 -1        19-1.97992E-02 5.93976E-03 5.93976E-03 6.32745E-18-9.65433E-20-1.91249E-19
 -1        20-1.97992E-02 5.93976E-03 5.93976E-03 1.48520E-18-1.83452E-18-1.07930E-17
 -1        21-1.97992E-02 5.93976E-03 5.93976E-03 3.70864E-19-9.64562E-19-8.09651E-19
 -1        22-1.97992E-02 5.93976E-03 5.93976E-03-1.04060E-18 2.71075E-19 1.81476E-18
 -1        23-1.97992E-02 5.93976E-03 5.93976E-03-7.87338E-19 1.13151E-19 2.76280E-18
 -1        24-1.97992E-02 5.93976E-03 5.93976E-03-4.18865E-19-1.48378E-18-3.11377E-18
 -1        25-1.97992E-02 5.93976E-03 5.93976E-03-4.75153E-19-1.34982E-18 5.71346E-19
 -1        26-1.97992E-02 5.93976E-03 5.93976E-03 1.55574E-18-1.11682E-18 8.56279E-19
 -1        27-1.97992E-02 5.93976E-03 5.93976E-03-1.78789E-18 1.88634E-18 5.60254E-18
 -1        28-1.97992E-02 5.93976E-03 5.93976E-03-1.09451E-19-1.92448E-18-2.59227E-18
 -1        29-1.97992E-02 5.93976E-03 5.93976E-03 9.45663E-19-1.03757E-18 8.39306E-19
 -1        30-1.97992E-02 5.93976E-03 5.93976E-03-7.04146E-19 1.77695E-19 6.15416E-19
 -1        31-1.97992E-02 5.93976E-03 5.93976E-03-3.14633E-18 1.33087E-19 1.23328E-18
 -1        32-1.97992E-02 5.93976E-03 5.93976E-03-2.65067E-18 2.16277E-18 9.27404E-18
 -3
    1PSTEP                        10           4           1          
  100CL  104 2.00000E-01          32                     0    4           1
 -4  DISP        4    1
 -5  D1          1    2    1    0
 -5  D2          1    2    2    0
 -5  D3          1    2    3    0
 -5  ALL         1    2    0    0    1ALL
 -1         1 0.00000E+00 0.00000E+00 0.00000E+00
 -1         2-1.33333E+01 0.00000E+00 0.00000E+00
 -1         3-2.66667E+01 0.00000E+00 0.00000E+00
 -1         4-4.00000E+01 0.00000E+00 0.00000E+00
 -1         5 0.00000E+00 3.93121E+00 0.00000E+00
 -1         6-1.33333E+01 3.93121E+00 0.00000E+00
 -1         7-2.66667E+01 3.93121E+00 0.00000E+00
 -1         8-4.00000E+01 3.93121E+00 0.00000E+00
 -1         9 0.00000E+00 7.86242E+00 0.00000E+00
 -1        10-1.33333E+01 7.86242E+00 0.00000E+00
 -1        11-2.66667E+01 7.86242E+00 0.00000E+00
 -1        12-4.00000E+01 7.86242E+00 0.00000E+00
 -1        13 0.00000E+00 1.17936E+01 0.00000E+00
 -1        14-1.33333E+01 1.17936E+01 0.00000E+00
 -1        15-2.66667E+01 1.17936E+01 0.00000E+00
 -1        16-4.00000E+01 1.17936E+01 0.00000E+00
 -1        17 0.00000E+00 0.00000E+00 5.50370E+00
 -1        18-1.33333E+01 0.00000E+00 5.50370E+00
 -1        19-2.66667E+01 0.00000E+00 5.50370E+00
 -1        20-4.00000E+01 0.00000E+00 5.50370E+00
 -1        21 0.00000E+00 3.93121E+00 5.50370E+00
 -1        22-1.33333E+01 3.93121E+00 5.50370E+00
 -1        23-2.66667E+01 3.93121E+00 5.50370E+00
 -1        24-4.00000E+01 3.93121E+00 5.50370E+00
 -1        25 0.00000E+00 7.86242E+00 5.50370E+00
 -1        26-1.33333E+01 7.86242E+00 5.50370E+00
 -1        27-2.66667E+01 7.86242E+00 5.50370E+00
 -1        28-4.00000E+01 7.86242E+00 5.50370E+00
 -1        29 0.00000E+00 1.17936E+01 5.50370E+00
 -1        30-1.33333E+01 1.17936E+01 5.50370E+00
 -1        31-2.66667E+01 1.17936E+01 5.50370E+00
 -1        32-4.00000E+01 1.17936E+01 5.50370E+00
 -3
    1PSTEP                        11           4           1          
  100CL  104 2.00000E-01          32                     0    4           1
 -4  STRESS      6    1