    1C
    1UUSER                                                              
    1UDATE              23.august.2016                                  
    1UTIME              11:04:34                                        
    1UHOST                                                              
    1UPGM               CalculiX                                        
    1UVERSION           Version 2.10                             
    1UCOMPILETIME       Sa 5. Mär 12:23:33 CET 2016                    
    1UDIR                                                               
    1UDBN                                                               
    1UMAT    1SI1                                                       
    1UMAT    2EL                                                        
    1UMAT    3SPRING                                                    
    2C                           800                                     1
 -1         1 0.00000E+00 0.00000E+00 0.00000E+00
 -1         2 5.00000E+02 0.00000E+00 0.00000E+00
 -1         3 5.10000E+02 0.00000E+00 0.00000E+00
 -1         4 1.01000E+03 0.00000E+00 0.00000E+00
 -1         5 1.02000E+03 0.00000E+00 0.00000E+00
 -1         6 1.52000E+03 0.00000E+00 0.00000E+00
 -1         7 1.53000E+03 0.00000E+00 0.00000E+00
 -1         8 2.03000E+03 0.00000E+00 0.00000E+00
 -1         9 2.04000E+03 0.00000E+00 0.00000E+00
 -1        10 2.54000E+03 0.00000E+00 0.00000E+00
 -1        11 2.55000E+03 0.00000E+00 0.00000E+00
 -1        12 3.05000E+03 0.00000E+00 0.00000E+00
 -1        13 3.06000E+03 0.00000E+00 0.00000E+00
 -1        14 3.56000E+03 0.00000E+00 0.00000E+00
 -1        15 3.57000E+03 0.00000E+00 0.00000E+00
 -1        16 4.07000E+03 0.00000E+00 0.00000E+00
 -1        17 4.08000E+03 0.00000E+00 0.00000E+00
 -1        18 4.58000E+03 0.00000E+00 0.00000E+00
 -1        19 4.59000E+03 0.00000E+00 0.00000E+00
 -1        20 5.09000E+03 0.00000E+00 0.00000E+00
 -1        21 0.00000E+00 5.00000E+02 0.00000E+00
 -1        22 5.00000E+02 5.00000E+02 0.00000E+00
 -1        23 5.10000E+02 5.00000E+02 0.00000E+00
 -1        24 1.01000E+03 5.00000E+02 0.00000E+00
 -1        25 1.02000E+03 5.00000E+02 0.00000E+00
 -1        26 1.52000E+03 5.00000E+02 0.00000E+00
 -1        27 1.53000E+03 5.00000E+02 0.00000E+00
 -1        28 2.03000E+03 5.00000E+02 0.00000E+00
 -1        29 2.04000E+03 5.00000E+02 0.00000E+00
 -1        30 2.54000E+03 5.00000E+02 0.00000E+00
 -1        31 2.55000E+03 5.00000E+02 0.00000E+00
 -1        32 3.05000E+03 5.00000E+02 0.00000E+00
 -1        33 3.06000E+03 5.00000E+02 0.00000E+00
 -1        34 3.56000E+03 5.00000E+02 0.00000E+00
 -1        35 3.57000E+03 5.00000E+02 0.00000E+00
 -1        36 4.07000E+03 5.00000E+02 0.00000E+00
 -1        37 4.08000E+03 5.00000E+02 0.00000E+00
 -1        38 4.58000E+03 5.00000E+02 0.00000E+00
 -1        39 4.59000E+03 5.00000E+02 0.00000E+00
 -1        40 5.09000E+03 5.00000E+02 0.00000E+00
 -1        41 0.00000E+00 5.10000E+02 0.00000E+00
 -1        42 5.00000E+02 5.10000E+02 0.00000E+00
 -1        43 5.10000E+02 5.10000E+02 0.00000E+00
 -1        44 1.01000E+03 5.10000E+02 0.00000E+00
 -1        45 1.02000E+03 5.10000E+02 0.00000E+00
 -1        46 1.52000E+03 5.10000E+02 0.00000E+00
 -1        47 1.53000E+03 5.10000E+02 0.00000E+00
 -1        48 2.03000E+03 5.10000E+02 0.00000E+00
 -1        49 2.04000E+03 5.10000E+02 0.00000E+00
 -1        50 2.54000E+03 5.10000E+02 0.00000E+00
 -1        51 2.55000E+03 5.10000E+02 0.00000E+00
 -1        52 3.05000E+03 5.10000E+02 0.00000E+00
 -1        53 3.06000E+03 5.10000E+02 0.00000E+00
 -1        54 3.56000E+03 5.10000E+02 0.00000E+00
 -1        55 3.57000E+03 5.10000E+02 0.00000E+00
 -1        56 4.07000E+03 5.10000E+02 0.00000E+00
 -1        57 4.08000E+03 5.10000E+02 0.00000E+00
 -1        58 4.58000E+03 5.10000E+02 0.00000E+00
 -1        59 4.59000E+03 5.10000E+02 0.00000E+00
 -1        60 5.09000E+03 5.10000E+02 0.00000E+00
 -1        61 0.00000E+00 1.01000E+03 0.00000E+00
 -1        62 5.00000E+02 1.01000E+03 0.00000E+00
 -1        63 5.10000E+02 1.01000E+03 0.00000E+00
 -1        64 1.01000E+03 1.01000E+03 0.00000E+00
 -1        65 1.02000E+03 1.01000E+03 0.00000E+00
 -1        66 1.52000E+03 1.01000E+03 0.00000E+00
 -1        67 1.53000E+03 1.01000E+03 0.00000E+00
 -1        68 2.03000E+03 1.01000E+03 0.00000E+00
 -1        69 2.04000E+03 1.01000E+03 0.00000E+00
 -1        70 2.54000E+03 1.01000E+03 0.00000E+00
 -1        71 2.55000E+03 1.01000E+03 0.00000E+00
 -1        72 3.05000E+03 1.01000E+03 0.00000E+00
 -1        73 3.06000E+03 1.01000E+03 0.00000E+00
 -1        74 3.56000E+03 1.01000E+03 0.00000E+00
 -1        75 3.57000E+03 1.01000E+03 0.00000E+00
 -1        76 4.07000E+03 1.01000E+03 0.00000E+00
 -1        77 4.08000E+03 1.01000E+03 0.00000E+00
 -1        78 4.58000E+03 1.01000E+03 0.00000E+00
 -1        79 4.59000E+03 1.01000E+03 0.00000E+00
 -1        80 5.09000E+03 1.01000E+03 0.00000E+00
 -1        81 0.00000E+00 1.02000E+03 0.00000E+00
 -1        82 5.00000E+02 1.02000E+03 0.00000E+00
 -1        83 5.10000E+02 1.02000E+03 0.00000E+00
 -1        84 1.01000E+03 1.02000E+03 0.00000E+00
 -1        85 1.02000E+03 1.02000E+03 0.00000E+00
 -1        86 1.52000E+03 1.02000E+03 0.00000E+00
 -1        87 1.53000E+03 1.02000E+03 0.00000E+00
 -1        88 2.03000E+03 1.02000E+03 0.00000E+00
 -1        89 2.04000E+03 1.02000E+03 0.00000E+00
 -1        90 2.54000E+03 1.02000E+03 0.00000E+00
 -1        91 2.55000E+03 1.02000E+03 0.00000E+00
 -1        92 3.05000E+03 1.02000E+03 0.00000E+00
 -1        93 3.06000E+03 1.02000E+03 0.00000E+00
 -1        94 3.56000E+03 1.02000E+03 0.00000E+00
 -1        95 3.57000E+03 1.02000E+03 0.00000E+00
 -1        96 4.07000E+03 1.02000E+03 0.00000E+00
 -1        97 4.08000E+03 1.02000E+03 0.00000E+00
 -1        98 4.58000E+03 1.02000E+03 0.00000E+00
 -1        99 4.59000E+03 1.02000E+03 0.00000E+00
 -1       100 5.09000E+03 1.02000E+03 0.00000E+00
 -1       101 0.00000E+00 1.52000E+03 0.00000E+00
 -1       102 5.00000E+02 1.52000E+03 0.00000E+00
 -1       103 5.10000E+02 1.52000E+03 0.00000E+00
 -1       104 1.01000E+03 1.52000E+03 0.00000E+00
 -1       105 1.02000E+03 1.52000E+03 0.00000E+00
 -1       106 1.52000E+03 1.52000E+03 0.00000E+00
 -1       107 1.53000E+03 1.52000E+03 0.00000E+00
 -1       108 2.03000E+03 1.52000E+03 0.00000E+00
 -1       109 2.04000E+03 1.52000E+03 0.00000E+00
 -1       110 2.54000E+03 1.52000E+03 0.00000E+00
 -1       111 2.55000E+03 1.52000E+03 0.00000E+00
 -1       112 3.05000E+03 1.52000E+03 0.00000E+00
 -1       113 3.06000E+03 1.52000E+03 0.00000E+00
 -1       114 3.56000E+03 1.52000E+03 0.00000E+00
 -1       115 3.57000E+03 1.52000E+03 0.00000E+00
 -1       116 4.07000E+03 1.52000E+03 0.00000E+00
 -1       117 4.08000E+03 1.52000E+03 0.00000E+00
 -1       118 4.58000E+03 1.52000E+03 0.00000E+00
 -1       119 4.59000E+03 1.52000E+03 0.00000E+00
 -1       120 5.09000E+03 1.52000E+03 0.00000E+00
 -1       121 0.00000E+00 1.53000E+03 0.00000E+00
 -1       122 5.00000E+02 1.53000E+03 0.00000E+00
 -1       123 5.10000E+02 1.53000E+03 0.00000E+00
 -1       124 1.01000E+03 1.53000E+03 0.00000E+00
 -1       125 1.02000E+03 1.53000E+03 0.00000E+00
 -1       126 1.52000E+03 1.53000E+03 0.00000E+00
 -1       127 1.53000E+03 1.53000E+03 0.00000E+00
 -1       128 2.03000E+03 1.53000E+03 0.00000E+00
 -1       129 2.04000E+03 1.53000E+03 0.00000E+00
 -1       130 2.54000E+03 1.53000E+03 0.00000E+00
 -1       131 2.55000E+03 1.53000E+03 0.00000E+00
 -1       132 3.05000E+03 1.53000E+03 0.00000E+00
 -1       133 3.06000E+03 1.53000E+03 0.00000E+00
 -1       134 3.56000E+03 1.53000E+03 0.00000E+00
 -1       135 3.57000E+03 1.53000E+03 0.00000E+00
 -1       136 4.07000E+03 1.53000E+03 0.00000E+00
 -1       137 4.08000E+03 1.53000E+03 0.00000E+00
 -1       138 4.58000E+03 1.53000E+03 0.00000E+00
 -1       139 4.59000E+03 1.53000E+03 0.00000E+00
 -1       140 5.09000E+03 1.53000E+03 0.00000E+00
 -1       141 0.00000E+00 2.03000E+03 0.00000E+00
 -1       142 5.00000E+02 2.03000E+03 0.00000E+00
 -1       143 5.10000E+02 2.03000E+03 0.00000E+00
 -1       144 1.01000E+03 2.03000E+03 0.00000E+00
 -1       145 1.02000E+03 2.03000E+03 0.00000E+00
 -1       146 1.52000E+03 2.03000E+03 0.00000E+00
 -1       147 1.53000E+03 2.03000E+03 0.00000E+00
 -1       148 2.03000E+03 2.03000E+03 0.00000E+00
 -1       149 2.04000E+03 2.03000E+03 0.00000E+00
 -1       150 2.54000E+03 2.03000E+03 0.00000E+00
 -1       151 2.55000E+03 2.03000E+03 0.00000E+00
 -1       152 3.05000E+03 2.03000E+03 0.00000E+00
 -1       153 3.06000E+03 2.03000E+03 0.00000E+00
 -1       154 3.56000E+03 2.03000E+03 0.00000E+00
 -1       155 3.57000E+03 2.03000E+03 0.00000E+00
 -1       156 4.07000E+03 2.03000E+03 0.00000E+00
 -1       157 4.08000E+03 2.03000E+03 0.00000E+00
 -1       158 4.58000E+03 2.03000E+03 0.00000E+00
 -1       159 4.59000E+03 2.03000E+03 0.00000E+00
 -1       160 5.09000E+03 2.03000E+03 0.00000E+00
 -1       161 0.00000E+00 2.04000E+03 0.00000E+00
 -1       162 5.00000E+02 2.04000E+03 0.00000E+00
 -1       163 5.10000E+02 2.04000E+03 0.00000E+00
 -1       164 1.01000E+03 2.04000E+03 0.00000E+00
 -1       165 1.02000E+03 2.04000E+03 0.00000E+00
 -1       166 1.52000E+03 2.04000E+03 0.00000E+00
 -1       167 1.53000E+03 2.04000E+03 0.00000E+00
 -1       168 2.03000E+03 2.04000E+03 0.00000E+00
 -1       169 2.04000E+03 2.04000E+03 0.00000E+00
 -1       170 2.54000E+03 2.04000E+03 0.00000E+00
 -1       171 2.55000E+03 2.04000E+03 0.00000E+00
 -1       172 3.05000E+03 2.04000E+03 0.00000E+00
 -1       173 3.06000E+03 2.04000E+03 0.00000E+00
 -1       174 3.56000E+03 2.04000E+03 0.00000E+00
 -1       175 3.57000E+03 2.04000E+03 0.00000E+00
 -1       176 4.07000E+03 2.04000E+03 0.00000E+00
 -1       177 4.08000E+03 2.04000E+03 0.00000E+00
 -1       178 4.58000E+03 2.04000E+03 0.00000E+00
 -1       179 4.59000E+03 2.04000E+03 0.00000E+00
 -1       180 5.09000E+03 2.04000E+03 0.00000E+00
 -1       181 0.00000E+00 2.54000E+03 0.00000E+00
 -1       182 5.00000E+02 2.54000E+03 0.00000E+00
 -1       183 5.10000E+02 2.54000E+03 0.00000E+00
 -1       184 1.01000E+03 2.54000E+03 0.00000E+00
 -1       185 1.02000E+03 2.54000E+03 0.00000E+00
 -1       186 1.52000E+03 2.54000E+03 0.00000E+00
 -1       187 1.53000E+03 2.54000E+03 0.00000E+00
 -1       188 2.03000E+03 2.54000E+03 0.00000E+00
 -1       189 2.04000E+03 2.54000E+03 0.00000E+00
 -1       190 2.54000E+03 2.54000E+03 0.00000E+00
 -1       191 2.55000E+03 2.54000E+03 0.00000E+00
 -1       192 3.05000E+03 2.54000E+03 0.00000E+00
 -1       193 3.06000E+03 2.54000E+03 0.00000E+00
 -1       194 3.56000E+03 2.54000E+03 0.00000E+00
 -1       195 3.57000E+03 2.54000E+03 0.00000E+00
 -1       196 4.07000E+03 2.54000E+03 0.00000E+00
 -1       197 4.08000E+03 2.54000E+03 0.00000E+00
 -1       198 4.58000E+03 2.54000E+03 0.00000E+00
 -1       199 4.59000E+03 2.54000E+03 0.00000E+00
 -1       200 5.09000E+03 2.54000E+03 0.00000E+00
 -1       201 0.00000E+00 2.55000E+03 0.00000E+00
 -1       202 5.00000E+02 2.55000E+03 0.00000E+00
 -1       203 5.10000E+02 2.55000E+03 0.00000E+00
 -1       204 1.01000E+03 2.55000E+03 0.00000E+00
 -1       205 1.02000E+03 2.55000E+03 0.00000E+00
 -1       206 1.52000E+03 2.55000E+03 0.00000E+00
 -1       207 1.53000E+03 2.55000E+03 0.00000E+00
 -1       208 2.03000E+03 2.55000E+03 0.00000E+00
 -1       209 2.04000E+03 2.55000E+03 0.00000E+00
 -1       210 2.54000E+03 2.55000E+03 0.00000E+00
 -1       211 2.55000E+03 2.55000E+03 0.00000E+00
 -1       212 3.05000E+03 2.55000E+03 0.00000E+00
 -1       213 3.06000E+03 2.55000E+03 0.00000E+00
 -1       214 3.56000E+03 2.55000E+03 0.00000E+00
 -1       215 3.57000E+03 2.55000E+03 0.00000E+00
 -1       216 4.07000E+03 2.55000E+03 0.00000E+00
 -1       217 4.08000E+03 2.55000E+03 0.00000E+00
 -1       218 4.58000E+03 2.55000E+03 0.00000E+00
 -1       219 4.59000E+03 2.55000E+03 0.00000E+00
 -1       220 5.09000E+03 2.55000E+03 0.00000E+00
 -1       221 0.00000E+00 3.05000E+03 0.00000E+00
 -1       222 5.00000E+02 3.05000E+03 0.00000E+00
 -1       223 5.10000E+02 3.05000E+03 0.00000E+00
 -1       224 1.01000E+03 3.05000E+03 0.00000E+00
 -1       225 1.02000E+03 3.05000E+03 0.00000E+00
 -1       226 1.52000E+03 3.05000E+03 0.00000E+00
 -1       227 1.53000E+03 3.05000E+03 0.00000E+00
 -1       228 2.03000E+03 3.05000E+03 0.00000E+00
 -1       229 2.04000E+03 3.05000E+03 0.00000E+00
 -1       230 2.54000E+03 3.05000E+03 0.00000E+00
 -1       231 2.55000E+03 3.05000E+03 0.00000E+00
 -1       232 3.05000E+03 3.05000E+03 0.00000E+00
 -1       233 3.06000E+03 3.05000E+03 0.00000E+00
 -1       234 3.56000E+03 3.05000E+03 0.00000E+00
 -1       235 3.57000E+03 3.05000E+03 0.00000E+00
 -1       236 4.07000E+03 3.05000E+03 0.00000E+00
 -1       237 4.08000E+03 3.05000E+03 0.00000E+00
 -1       238 4.58000E+03 3.05000E+03 0.00000E+00
 -1       239 4.59000E+03 3.05000E+03 0.00000E+00
 -1       240 5.09000E+03 3.05000E+03 0.00000E+00
 -1       241 0.00000E+00 3.06000E+03 0.00000E+00
 -1       242 5.00000E+02 3.06000E+03 0.00000E+00
 -1       243 5.10000E+02 3.06000E+03 0.00000E+00
 -1       244 1.01000E+03 3.06000E+03 0.00000E+00
 -1       245 1.02000E+03 3.06000E+03 0.00000E+00
 -1       246 1.52000E+03 3.06000E+03 0.00000E+00
 -1       247 1.53000E+03 3.06000E+03 0.00000E+00
 -1       248 2.03000E+03 3.06000E+03 0.00000E+00
 -1       249 2.04000E+03 3.06000E+03 0.00000E+00
 -1       250 2.54000E+03 3.06000E+03 0.00000E+00
 -1       251 2.55000E+03 3.06000E+03 0.00000E+00
 -1       252 3.05000E+03 3.06000E+03 0.00000E+00
 -1       253 3.06000E+03 3.06000E+03 0.00000E+00
 -1       254 3.56000E+03 3.06000E+03 0.00000E+00
 -1       255 3.57000E+03 3.06000E+03 0.00000E+00
 -1       256 4.07000E+03 3.06000E+03 0.00000E+00
 -1       257 4.08000E+03 3.06000E+03 0.00000E+00
 -1       258 4.58000E+03 3.06000E+03 0.00000E+00
 -1       259 4.59000E+03 3.06000E+03 0.00000E+00
 -1       260 5.09000E+03 3.06000E+03 0.00000E+00
 -1       261 0.00000E+00 3.56000E+03 0.00000E+00
 -1       262 5.00000E+02 3.56000E+03 0.00000E+00
 -1       263 5.10000E+02 3.56000E+03 0.00000E+00
 -1       264 1.01000E+03 3.56000E+03 0.00000E+00
 -1       265 1.02000E+03 3.56000E+03 0.00000E+00
 -1       266 1.52000E+03 3.56000E+03 0.00000E+00
 -1       267 1.53000E+03 3.56000E+03 0.00000E+00
 -1       268 2.03000E+03 3.56000E+03 0.00000E+00
 -1       269 2.04000E+03 3.56000E+03 0.00000E+00
 -1       270 2.54000E+03 3.56000E+03 0.00000E+00
 -1       271 2.55000E+03 3.56000E+03 0.00000E+00
 -1       272 3.05000E+03 3.56000E+03 0.00000E+00
 -1       273 3.06000E+03 3.56000E+03 0.00000E+00
 -1       274 3.56000E+03 3.56000E+03 0.00000E+00
 -1       275 3.57000E+03 3.56000E+03 0.00000E+00
 -1       276 4.07000E+03 3.56000E+03 0.00000E+00
 -1       277 4.08000E+03 3.56000E+03 0.00000E+00
 -1       278 4.58000E+03 3.56000E+03 0.00000E+00
 -1       279 4.59000E+03 3.56000E+03 0.00000E+00
 -1       280 5.09000E+03 3.56000E+03 0.00000E+00
 -1       281 0.00000E+00 3.57000E+03 0.00000E+00
 -1       282 5.00000E+02 3.57000E+03 0.00000E+00
 -1       283 5.10000E+02 3.57000E+03 0.00000E+00
 -1       284 1.01000E+03 3.57000E+03 0.00000E+00
 -1       285 1.02000E+03 3.57000E+03 0.00000E+00
 -1       286 1.52000E+03 3.57000E+03 0.00000E+00
 -1       287 1.53000E+03 3.57000E+03 0.00000E+00
 -1       288 2.03000E+03 3.57000E+03 0.00000E+00
 -1       289 2.04000E+03 3.57000E+03 0.00000E+00
 -1       290 2.54000E+03 3.57000E+03 0.00000E+00
 -1       291 2.55000E+03 3.57000E+03 0.00000E+00
 -1       292 3.05000E+03 3.57000E+03 0.00000E+00
 -1       293 3.06000E+03 3.57000E+03 0.00000E+00
 -1       294 3.56000E+03 3.57000E+03 0.00000E+00
 -1       295 3.57000E+03 3.57000E+03 0.00000E+00
 -1       296 4.07000E+03 3.57000E+03 0.00000E+00
 -1       297 4.08000E+03 3.57000E+03 0.00000E+00
 -1       298 4.58000E+03 3.57000E+03 0.00000E+00
 -1       299 4.59000E+03 3.57000E+03 0.00000E+00
 -1       300 5.09000E+03 3.57000E+03 0.00000E+00
 -1       301 0.00000E+00 4.07000E+03 0.00000E+00
 -1       302 5.00000E+02 4.07000E+03 0.00000E+00
 -1       303 5.10000E+02 4.07000E+03 0.00000E+00
 -1       304 1.01000E+03 4.07000E+03 0.00000E+00
 -1       305 1.02000E+03 4.07000E+03 0.00000E+00
 -1       306 1.52000E+03 4.07000E+03 0.00000E+00
 -1       307 1.53000E+03 4.07000E+03 0.00000E+00
 -1       308 2.03000E+03 4.07000E+03 0.00000E+00
 -1       309 2.04000E+03 4.07000E+03 0.00000E+00
 -1       310 2.54000E+03 4.07000E+03 0.00000E+00
 -1       311 2.55000E+03 4.07000E+03 0.00000E+00
 -1       312 3.05000E+03 4.07000E+03 0.00000E+00
 -1       313 3.06000E+03 4.07000E+03 0.00000E+00
 -1       314 3.56000E+03 4.07000E+03 0.00000E+00
 -1       315 3.57000E+03 4.07000E+03 0.00000E+00
 -1       316 4.07000E+03 4.07000E+03 0.00000E+00
 -1       317 4.08000E+03 4.07000E+03 0.00000E+00
 -1       318 4.58000E+03 4.07000E+03 0.00000E+00
 -1       319 4.59000E+03 4.07000E+03 0.00000E+00
 -1       320 5.09000E+03 4.07000E+03 0.00000E+00
 -1       321 0.00000E+00 4.08000E+03 0.00000E+00
 -1       322 5.00000E+02 4.08000E+03 0.00000E+00
 -1       323 5.10000E+02 4.08000E+03 0.00000E+00
 -1       324 1.01000E+03 4.08000E+03 0.00000E+00
 -1       325 1.02000E+03 4.08000E+03 0.00000E+00
 -1       326 1.52000E+03 4.08000E+03 0.00000E+00
 -1       327 1.53000E+03 4.08000E+03 0.00000E+00
 -1       328 2.03000E+03 4.08000E+03 0.00000E+00
 -1       329 2.04000E+03 4.08000E+03 0.00000E+00
 -1       330 2.54000E+03 4.08000E+03 0.00000E+00
 -1       331 2.55000E+03 4.08000E+03 0.00000E+00
 -1       332 3.05000E+03 4.08000E+03 0.00000E+00
 -1       333 3.06000E+03 4.08000E+03 0.00000E+00
 -1       334 3.56000E+03 4.08000E+03 0.00000E+00
 -1       335 3.57000E+03 4.08000E+03 0.00000E+00
 -1       336 4.07000E+03 4.08000E+03 0.00000E+00
 -1       337 4.08000E+03 4.08000E+03 0.00000E+00
 -1       338 4.58000E+03 4.08000E+03 0.00000E+00
 -1       339 4.59000E+03 4.08000E+03 0.00000E+00
 -1       340 5.09000E+03 4.08000E+03 0.00000E+00
 -1       341 0.00000E+00 4.58000E+03 0.00000E+00
 -1       342 5.00000E+02 4.58000E+03 0.00000E+00
 -1       343 5.10000E+02 4.58000E+03 0.00000E+00
 -1       344 1.01000E+03 4.58000E+03 0.00000E+00
 -1       345 1.02000E+03 4.58000E+03 0.00000E+00
 -1       346 1.52000E+03 4.58000E+03 0.00000E+00
 -1       347 1.53000E+03 4.58000E+03 0.00000E+00
 -1       348 2.03000E+03 4.58000E+03 0.00000E+00
 -1       349 2.04000E+03 4.58000E+03 0.00000E+00
 -1       350 2.54000E+03 4.58000E+03 0.00000E+00
 -1       351 2.55000E+03 4.58000E+03 0.00000E+00
 -1       352 3.05000E+03 4.58000E+03 0.00000E+00
 -1       353 3.06000E+03 4.58000E+03 0.00000E+00
 -1       354 3.56000E+03 4.58000E+03 0.00000E+00
 -1       355 3.57000E+03 4.58000E+03 0.00000E+00
 -1       356 4.07000E+03 4.58000E+03 0.00000E+00
 -1       357 4.08000E+03 4.58000E+03 0.00000E+00
 -1       358 4.58000E+03 4.58000E+03 0.00000E+00
 -1       359 4.59000E+03 4.58000E+03 0.00000E+00
 -1       360 5.09000E+03 4.58000E+03 0.00000E+00
 -1       361 0.00000E+00 4.59000E+03 0.00000E+00
 -1       362 5.00000E+02 4.59000E+03 0.00000E+00
 -1       363 5.10000E+02 4.59000E+03 0.00000E+00
 -1       364 1.01000E+03 4.59000E+03 0.00000E+00
 -1       365 1.02000E+03 4.59000E+03 0.00000E+00
 -1       366 1.52000E+03 4.59000E+03 0.00000E+00
 -1       367 1.53000E+03 4.59000E+03 0.00000E+00
 -1       368 2.03000E+03 4.59000E+03 0.00000E+00
 -1       369 2.04000E+03 4.59000E+03 0.00000E+00
 -1       370 2.54000E+03 4.59000E+03 0.00000E+00
 -1       371 2.55000E+03 4.59000E+03 0.00000E+00
 -1       372 3.05000E+03 4.59000E+03 0.00000E+00
 -1       373 3.06000E+03 4.59000E+03 0.00000E+00
 -1       374 3.56000E+03 4.59000E+03 0.00000E+00
 -1       375 3.57000E+03 4.59000E+03 0.00000E+00
 -1       376 4.07000E+03 4.59000E+03 0.00000E+00
 -1       377 4.08000E+03 4.59000E+03 0.00000E+00
 -1       378 4.58000E+03 4.59000E+03 0.00000E+00
 -1       379 4.59000E+03 4.59000E+03 0.00000E+00
 -1       380 5.09000E+03 4.59000E+03 0.00000E+00
 -1       381 0.00000E+00 5.09000E+03 0.00000E+00
 -1       382 5.00000E+02 5.09000E+03 0.00000E+00
 -1       383 5.10000E+02 5.09000E+03 0.00000E+00
 -1       384 1.01000E+03 5.09000E+03 0.00000E+00
 -1       385 1.02000E+03 5.09000E+03 0.00000E+00
 -1       386 1.52000E+03 5.09000E+03 0.00000E+00
 -1       387 1.53000E+03 5.09000E+03 0.00000E+00
 -1       388 2.03000E+03 5.09000E+03 0.00000E+00
 -1       389 2.04000E+03 5.09000E+03 0.00000E+00
 -1       390 2.54000E+03 5.09000E+03 0.00000E+00
 -1       391 2.55000E+03 5.09000E+03 0.00000E+00
 -1       392 3.05000E+03 5.09000E+03 0.00000E+00
 -1       393 3.06000E+03 5.09000E+03 0.00000E+00
 -1       394 3.56000E+03 5.09000E+03 0.00000E+00
 -1       395 3.57000E+03 5.09000E+03 0.00000E+00
 -1       396 4.07000E+03 5.09000E+03 0.00000E+00
 -1       397 4.08000E+03 5.09000E+03 0.00000E+00
 -1       398 4.58000E+03 5.09000E+03 0.00000E+00
 -1       399 4.59000E+03 5.09000E+03 0.00000E+00
 -1       400 5.09000E+03 5.09000E+03 0.00000E+00
 -1       401 0.00000E+00 0.00000E+00 7.00000E+02
 -1       402 5.00000E+02 0.00000E+00 7.00000E+02
 -1       403 5.10000E+02 0.00000E+00 7.00000E+02
 -1       404 1.01000E+03 0.00000E+00 7.00000E+02
 -1       405 1.02000E+03 0.00000E+00 7.00000E+02
 -1       406 1.52000E+03 0.00000E+00 7.00000E+02
 -1       407 1.53000E+03 0.00000E+00 7.00000E+02
 -1       408 2.03000E+03 0.00000E+00 7.00000E+02
 -1       409 2.04000E+03 0.00000E+00 7.00000E+02
 -1       410 2.54000E+03 0.00000E+00 7.00000E+02
 -1       411 2.55000E+03 0.00000E+00 7.00000E+02
 -1       412 3.05000E+03 0.00000E+00 7.00000E+02
 -1       413 3.06000E+03 0.00000E+00 7.00000E+02
 -1       414 3.56000E+03 0.00000E+00 7.00000E+02
 -1       415 3.57000E+03 0.00000E+00 7.00000E+02
 -1       416 4.07000E+03 0.00000E+00 7.00000E+02
 -1       417 4.08000E+03 0.00000E+00 7.00000E+02
 -1       418 4.58000E+03 0.00000E+00 7.00000E+02
 -1       419 4.59000E+03 0.00000E+00 7.00000E+02
 -1       420 5.09000E+03 0.00000E+00 7.00000E+02
 -1       421 0.00000E+00 5.00000E+02 7.00000E+02
 -1       422 5.00000E+02 5.00000E+02 7.00000E+02
 -1       423 5.10000E+02 5.00000E+02 7.00000E+02
 -1       424 1.01000E+03 5.00000E+02 7.00000E+02
 -1       425 1.02000E+03 5.00000E+02 7.00000E+02
 -1       426 1.52000E+03 5.00000E+02 7.00000E+02
 -1       427 1.53000E+03 5.00000E+02 7.00000E+02
 -1       428 2.03000E+03 5.00000E+02 7.00000E+02
 -1       429 2.04000E+03 5.00000E+02 7.00000E+02
 -1       430 2.54000E+03 5.00000E+02 7.00000E+02
 -1       431 2.55000E+03 5.00000E+02 7.00000E+02
 -1       432 3.05000E+03 5.00000E+02 7.00000E+02
 -1       433 3.06000E+03 5.00000E+02 7.00000E+02
 -1       434 3.56000E+03 5.00000E+02 7.00000E+02
 -1       435 3.57000E+03 5.00000E+02 7.00000E+02
 -1       436 4.07000E+03 5.00000E+02 7.00000E+02
 -1       437 4.08000E+03 5.00000E+02 7.00000E+02
 -1       438 4.58000E+03 5.00000E+02 7.00000E+02
 -1       439 4.59000E+03 5.00000E+02 7.00000E+02
 -1       440 5.09000E+03 5.00000E+02 7.00000E+02
 -1       441 0.00000E+00 5.10000E+02 7.00000E+02
 -1       442 5.00000E+02 5.10000E+02 7.00000E+02
 -1       443 5.10000E+02 5.10000E+02 7.00000E+02
 -1       444 1.01000E+03 5.10000E+02 7.00000E+02
 -1       445 1.02000E+03 5.10000E+02 7.00000E+02
 -1       446 1.52000E+03 5.10000E+02 7.00000E+02
 -1       447 1.53000E+03 5.10000E+02 7.00000E+02
 -1       448 2.03000E+03 5.10000E+02 7.00000E+02
 -1       449 2.04000E+03 5.10000E+02 7.00000E+02
 -1       450 2.54000E+03 5.10000E+02 7.00000E+02
 -1       451 2.55000E+03 5.10000E+02 7.00000E+02
 -1       452 3.05000E+03 5.10000E+02 7.00000E+02
 -1       453 3.06000E+03 5.10000E+02 7.00000E+02
 -1       454 3.56000E+03 5.10000E+02 7.00000E+02
 -1       455 3.57000E+03 5.10000E+02 7.00000E+02
 -1       456 4.07000E+03 5.10000E+02 7.00000E+02
 -1       457 4.08000E+03 5.10000E+02 7.00000E+02
 -1       458 4.58000E+03 5.10000E+02 7.00000E+02
 -1       459 4.59000E+03 5.10000E+02 7.00000E+02
 -1       460 5.09000E+03 5.10000E+02 7.00000E+02
 -1       461 0.00000E+00 1.01000E+03 7.00000E+02
 -1       462 5.00000E+02 1.01000E+03 7.00000E+02
 -1       463 5.10000E+02 1.01000E+03 7.00000E+02
 -1       464 1.01000E+03 1.01000E+03 7.00000E+02
 -1       465 1.02000E+03 1.01000E+03 7.00000E+02
 -1       466 1.52000E+03 1.01000E+03 7.00000E+02
 -1       467 1.53000E+03 1.01000E+03 7.00000E+02
 -1       468 2.03000E+03 1.01000E+03 7.00000E+02
 -1       469 2.04000E+03 1.01000E+03 7.00000E+02
 -1       470 2.54000E+03 1.01000E+03 7.00000E+02
 -1       471 2.55000E+03 1.01000E+03 7.00000E+02
 -1       472 3.05000E+03 1.01000E+03 7.00000E+02
 -1       473 3.06000E+03 1.01000E+03 7.00000E+02
 -1       474 3.56000E+03 1.01000E+03 7.00000E+02
 -1       475 3.57000E+03 1.01000E+03 7.00000E+02
 -1       476 4.07000E+03 1.01000E+03 7.00000E+02
 -1       477 4.08000E+03 1.01000E+03 7.00000E+02
 -1       478 4.58000E+03 1.01000E+03 7.00000E+02
 -1       479 4.59000E+03 1.01000E+03 7.00000E+02
 -1       480 5.09000E+03 1.01000E+03 7.00000E+02
 -1       481 0.00000E+00 1.02000E+03 7.00000E+02
 -1       482 5.00000E+02 1.02000E+03 7.00000E+02
 -1       483 5.10000E+02 1.02000E+03 7.00000E+02
 -1       484 1.01000E+03 1.02000E+03 7.00000E+02
 -1       485 1.02000E+03 1.02000E+03 7.00000E+02
 -1       486 1.52000E+03 1.02000E+03 7.00000E+02
 -1       487 1.53000E+03 1.02000E+03 7.00000E+02
 -1       488 2.03000E+03 1.02000E+03 7.00000E+02
 -1       489 2.04000E+03 1.02000E+03 7.00000E+02
 -1       490 2.54000E+03 1.02000E+03 7.00000E+02
 -1       491 2.55000E+03 1.02000E+03 7.00000E+02
 -1       492 3.05000E+03 1.02000E+03 7.00000E+02
 -1       493 3.06000E+03 1.02000E+03 7.00000E+02
 -1       494 3.56000E+03 1.02000E+03 7.00000E+02
 -1       495 3.57000E+03 1.02000E+03 7.00000E+02
 -1       496 4.07000E+03 1.02000E+03 7.00000E+02
 -1       497 4.08000E+03 1.02000E+03 7.00000E+02
 -1       498 4.58000E+03 1.02000E+03 7.00000E+02
 -1       499 4.59000E+03 1.02000E+03 7.00000E+02
 -1       500 5.09000E+03 1.02000E+03 7.00000E+02
 -1       501 0.00000E+00 1.52000E+03 7.00000E+02
 -1       502 5.00000E+02 1.52000E+03 7.00000E+02
 -1       503 5.10000E+02 1.52000E+03 7.00000E+02
 -1       504 1.01000E+03 1.52000E+03 7.00000E+02
 -1       505 1.02000E+03 1.52000E+03 7.00000E+02
 -1       506 1.52000E+03 1.52000E+03 7.00000E+02
 -1       507 1.53000E+03 1.52000E+03 7.00000E+02
 -1       508 2.03000E+03 1.52000E+03 7.00000E+02
 -1       509 2.04000E+03 1.52000E+03 7.00000E+02
 -1       510 2.54000E+03 1.52000E+03 7.00000E+02
 -1       511 2.55000E+03 1.52000E+03 7.00000E+02
 -1       512 3.05000E+03 1.52000E+03 7.00000E+02
 -1       513 3.06000E+03 1.52000E+03 7.00000E+02
 -1       514 3.56000E+03 1.52000E+03 7.00000E+02
 -1       515 3.57000E+03 1.52000E+03 7.00000E+02
 -1       516 4.07000E+03 1.52000E+03 7.00000E+02
 -1       517 4.08000E+03 1.52000E+03 7.00000E+02
 -1       518 4.58000E+03 1.52000E+03 7.00000E+02
 -1       519 4.59000E+03 1.52000E+03 7.00000E+02
 -1       520 5.09000E+03 1.52000E+03 7.00000E+02
 -1       521 0.00000E+00 1.53000E+03 7.00000E+02
 -1       522 5.00000E+02 1.53000E+03 7.00000E+02
 -1       523 5.10000E+02 1.53000E+03 7.00000E+02
 -1       524 1.01000E+03 1.53000E+03 7.00000E+02
 -1       525 1.02000E+03 1.53000E+03 7.00000E+02
 -1       526 1.52000E+03 1.53000E+03 7.00000E+02
 -1       527 1.53000E+03 1.53000E+03 7.00000E+02
 -1       528 2.03000E+03 1.53000E+03 7.00000E+02
 -1       529 2.04000E+03 1.53000E+03 7.00000E+02
 -1       530 2.54000E+03 1.53000E+03 7.00000E+02
 -1       531 2.55000E+03 1.53000E+03 7.00000E+02
 -1       532 3.05000E+03 1.53000E+03 7.00000E+02
 -1       533 3.06000E+03 1.53000E+03 7.00000E+02
 -1       534 3.56000E+03 1.53000E+03 7.00000E+02
 -1       535 3.57000E+03 1.53000E+03 7.00000E+02
 -1       536 4.07000E+03 1.53000E+03 7.00000E+02
 -1       537 4.08000E+03 1.53000E+03 7.00000E+02
 -1       538 4.58000E+03 1.53000E+03 7.00000E+02
 -1       539 4.59000E+03 1.53000E+03 7.00000E+02
 -1       540 5.09000E+03 1.53000E+03 7.00000E+02
 -1       541 0.00000E+00 2.03000E+03 7.00000E+02
 -1       542 5.00000E+02 2.03000E+03 7.00000E+02
 -1       543 5.10000E+02 2.03000E+03 7.00000E+02
 -1       544 1.01000E+03 2.03000E+03 7.00000E+02
 -1       545 1.02000E+03 2.03000E+03 7.00000E+02
 -1       546 1.52000E+03 2.03000E+03 7.00000E+02
 -1       547 1.53000E+03 2.03000E+03 7.00000E+02
 -1       548 2.03000E+03 2.03000E+03 7.00000E+02
 -1       549 2.04000E+03 2.03000E+03 7.00000E+02
 -1       550 2.54000E+03 2.03000E+03 7.00000E+02
 -1       551 2.55000E+03 2.03000E+03 7.00000E+02
 -1       552 3.05000E+03 2.03000E+03 7.00000E+02
 -1       553 3.06000E+03 2.03000E+03 7.00000E+02
 -1       554 3.56000E+03 2.03000E+03 7.00000E+02
 -1       555 3.57000E+03 2.03000E+03 7.00000E+02
 -1       556 4.07000E+03 2.03000E+03 7.00000E+02
 -1       557 4.08000E+03 2.03000E+03 7.00000E+02
 -1       558 4.58000E+03 2.03000E+03 7.00000E+02
 -1       559 4.59000E+03 2.03000E+03 7.00000E+02
 -1       560 5.09000E+03 2.03000E+03 7.00000E+02
 -1       561 0.00000E+00 2.04000E+03 7.00000E+02
 -1       562 5.00000E+02 2.04000E+03 7.00000E+02
 -1       563 5.10000E+02 2.04000E+03 7.00000E+02
 -1       564 1.01000E+03 2.04000E+03 7.00000E+02
 -1       565 1.02000E+03 2.04000E+03 7.00000E+02
 -1       566 1.52000E+03 2.04000E+03 7.00000E+02
 -1       567 1.53000E+03 2.04000E+03 7.00000E+02
 -1       568 2.03000E+03 2.04000E+03 7.00000E+02
 -1       569 2.04000E+03 2.04000E+03 7.00000E+02
 -1       570 2.54000E+03 2.04000E+03 7.00000E+02
 -1       571 2.55000E+03 2.04000E+03 7.00000E+02
 -1       572 3.05000E+03 2.04000E+03 7.00000E+02
 -1       573 3.06000E+03 2.04000E+03 7.00000E+02
 -1       574 3.56000E+03 2.04000E+03 7.00000E+02
 -1       575 3.57000E+03 2.04000E+03 7.00000E+02
 -1       576 4.07000E+03 2.04000E+03 7.00000E+02
 -1       577 4.08000E+03 2.04000E+03 7.00000E+02
 -1       578 4.58000E+03 2.04000E+03 7.00000E+02
 -1       579 4.59000E+03 2.04000E+03 7.00000E+02
 -1       580 5.09000E+03 2.04000E+03 7.00000E+02