
 displacements (vx,vy,vz) for set NALL and time  0.5000000E-01

         1  0.000000E+00  0.000000E+00  0.000000E+00
         2 -3.333333E+00  0.000000E+00  0.000000E+00
         3 -6.666667E+00  0.000000E+00  0.000000E+00
         4 -1.000000E+01  0.000000E+00  0.000000E+00
         5  0.000000E+00  9.956754E-01  0.000000E+00
         6 -3.333333E+00  9.956754E-01  0.000000E+00
         7 -6.666667E+00  9.956754E-01  0.000000E+00
         8 -1.000000E+01  9.956754E-01  0.000000E+00
         9  0.000000E+00  1.991351E+00  0.000000E+00
        10 -3.333333E+00  1.991351E+00  0.000000E+00
        11 -6.666667E+00  1.991351E+00  0.000000E+00
        12 -1.000000E+01  1.991351E+00  0.000000E+00
        13  0.000000E+00  2.987026E+00  0.000000E+00
        14 -3.333333E+00  2.987026E+00  0.000000E+00
        15 -6.666667E+00  2.987026E+00  0.000000E+00
        16 -1.000000E+01  2.987026E+00  0.000000E+00
        17  0.000000E+00  0.000000E+00  1.393945E+00
        18 -3.333333E+00  0.000000E+00  1.393945E+00
        19 -6.666667E+00  0.000000E+00  1.393945E+00
        20 -1.000000E+01  0.000000E+00  1.393945E+00
        21  0.000000E+00  9.956754E-01  1.393945E+00
        22 -3.333333E+00  9.956754E-01  1.393945E+00
        23 -6.666667E+00  9.956754E-01  1.393945E+00
        24 -1.000000E+01  9.956754E-01  1.393945E+00
        25  0.000000E+00  1.991351E+00  1.393945E+00
        26 -3.333333E+00  1.991351E+00  1.393945E+00
        27 -6.666667E+00  1.991351E+00  1.393945E+00
        28 -1.000000E+01  1.991351E+00  1.393945E+00
        29  0.000000E+00  2.987026E+00  1.393945E+00
        30 -3.333333E+00  2.987026E+00  1.393945E+00
        31 -6.666667E+00  2.987026E+00  1.393945E+00
        32 -1.000000E+01  2.987026E+00  1.393945E+00

 stresses (elem, integ.pnt.,sxx,syy,szz,sxy,sxz,syz) for set EALL and time  0.5000000E-01

         1   1 -1.380527E+03  4.562217E-05  4.562217E-05 -3.149802E-14  2.207844E-15 -1.061174E-33
         1   2 -1.380527E+03  4.562217E-05  4.562217E-05 -6.622342E-14  1.305953E-14 -1.987503E-14
         1   3 -1.380527E+03  4.562217E-05  4.562217E-05 -4.603224E-15  1.500278E-16 -1.766669E-14
         1   4 -1.380527E+03  4.562217E-05  4.562217E-05 -3.932862E-14  8.696353E-14 -3.975005E-14
         1   5 -1.380527E+03  4.562217E-05  4.562217E-05 -2.166587E-14 -1.070166E-14  1.766669E-14
         1   6 -1.380527E+03  4.562217E-05  4.562217E-05 -7.375397E-14  1.500278E-16 -4.637506E-14
         1   7 -1.380527E+03  4.562217E-05  4.562217E-05 -1.736270E-14 -5.148799E-14  1.766669E-14
         1   8 -1.380527E+03  4.562217E-05  4.562217E-05 -6.945080E-14  6.001112E-16 -6.625009E-14
         2   1 -1.380527E+03  4.562217E-05  4.562217E-05 -1.432048E-13  8.696353E-14 -1.325002E-14
         2   2 -1.380527E+03  4.562217E-05  4.562217E-05 -1.432048E-13  1.151779E-13 -3.312504E-15
         2   3 -1.380527E+03  4.562217E-05  4.562217E-05 -1.559642E-13  3.042223E-14 -3.533338E-14
         2   4 -1.380527E+03  4.562217E-05  4.562217E-05 -1.082168E-13  2.474560E-13 -2.208336E-14
         2   5 -1.380527E+03  4.562217E-05  4.562217E-05 -6.945080E-14  1.134577E-13 -4.416672E-14
         2   6 -1.380527E+03  4.562217E-05  4.562217E-05 -2.604405E-13  6.788057E-14  4.858340E-14
         2   7 -1.380527E+03  4.562217E-05  4.562217E-05  5.223813E-14 -1.721267E-14 -4.416672E-14
         2   8 -1.380527E+03  4.562217E-05  4.562217E-05 -2.950159E-13  1.824584E-13  1.104168E-14
         3   1 -1.380527E+03  4.562217E-05  4.562217E-05 -3.902857E-14  1.845349E-13  4.416672E-15
         3   2 -1.380527E+03  4.562217E-05  4.562217E-05  8.251033E-14 -7.590555E-14  9.937513E-15
         3   3 -1.380527E+03  4.562217E-05  4.562217E-05 -3.472540E-14  2.735000E-13 -1.766669E-14
         3   4 -1.380527E+03  4.562217E-05  4.562217E-05 -4.340675E-14  3.603135E-13  1.545835E-14
         3   5 -1.380527E+03  4.562217E-05  4.562217E-05 -2.778032E-13  1.304453E-13  2.870837E-14
         3   6 -1.380527E+03  4.562217E-05  4.562217E-05 -3.472540E-14 -1.169732E-13  1.325002E-14
         3   7 -1.380527E+03  4.562217E-05  4.562217E-05 -2.605905E-13  3.300413E-13  1.766669E-14
         3   8 -1.380527E+03  4.562217E-05  4.562217E-05 -1.751273E-14  2.085024E-13 -2.208336E-15
         4   1 -1.380527E+03  4.562217E-05  4.562217E-05  4.967397E-14  8.831378E-15 -1.766669E-14
         4   2 -1.380527E+03  4.562217E-05  4.562217E-05  4.533329E-14  9.564488E-14  1.987503E-14
         4   3 -1.380527E+03  4.562217E-05  4.562217E-05  1.309704E-14  1.313455E-14  3.533338E-14
         4   4 -1.380527E+03  4.562217E-05  4.562217E-05  8.756364E-15  9.126669E-14  1.766669E-14
         4   5 -1.380527E+03  4.562217E-05  4.562217E-05  8.756364E-15 -4.276913E-14 -3.091671E-14
         4   6 -1.380527E+03  4.562217E-05  4.562217E-05  6.084446E-14  2.234099E-14  2.208336E-14
         4   7 -1.380527E+03  4.562217E-05  4.562217E-05  1.736270E-14 -8.381294E-15  1.766669E-14
         4   8 -1.380527E+03  4.562217E-05  4.562217E-05  6.945080E-14  6.975085E-14  2.650003E-14
         5   1 -1.380527E+03  4.562217E-05  4.562217E-05  1.393517E-13  2.517591E-13 -3.091671E-14
         5   2 -1.380527E+03  4.562217E-05  4.562217E-05  8.726358E-14 -2.821439E-14  1.987503E-14
         5   3 -1.380527E+03  4.562217E-05  4.562217E-05  3.532551E-14 -4.303168E-15  2.650003E-14
         5   4 -1.380527E+03  4.562217E-05  4.562217E-05  3.098484E-14  2.474560E-13  4.637506E-14
         5   5 -1.380527E+03  4.562217E-05  4.562217E-05  1.216889E-13  1.519611E-13  2.525977E-31
         5   6 -1.380527E+03  4.562217E-05  4.562217E-05  1.564143E-13 -1.453751E-13  6.845842E-14
         5   7 -1.380527E+03  4.562217E-05  4.562217E-05  7.005091E-14  5.223813E-14  1.766669E-14
         5   8 -1.380527E+03  4.562217E-05  4.562217E-05  8.741361E-14  2.519092E-13  3.975005E-14
         6   1 -1.380527E+03  4.562217E-05  4.562217E-05  1.389016E-13  1.433548E-13 -8.833345E-15
         6   2 -1.380527E+03  4.562217E-05  4.562217E-05  5.208810E-14 -3.037347E-13  2.650003E-14
         6   3 -1.380527E+03  4.562217E-05  4.562217E-05  1.389016E-13  1.954429E-13  4.858340E-14
         6   4 -1.380527E+03  4.562217E-05  4.562217E-05  1.302202E-13  3.690699E-13  5.741674E-14
         6   5 -1.380527E+03  4.562217E-05  4.562217E-05  1.561143E-13  2.196592E-14  8.833345E-15
         6   6 -1.380527E+03  4.562217E-05  4.562217E-05 -1.751273E-14 -8.221027E-14  2.208336E-15
         6   7 -1.380527E+03  4.562217E-05  4.562217E-05  1.389016E-13  2.261652E-13  7.066676E-14
         6   8 -1.380527E+03  4.562217E-05  4.562217E-05  1.551910E-31  1.740771E-13  2.650003E-14
         7   1 -1.380527E+03  4.562217E-05  4.562217E-05  1.309704E-14  1.090795E-14  1.325002E-14
         7   2 -1.380527E+03  4.562217E-05  4.562217E-05  1.302953E-13  1.237655E-13 -6.625009E-15
         7   3 -1.380527E+03  4.562217E-05  4.562217E-05  2.170337E-14  8.831378E-15 -9.275012E-14
         7   4 -1.380527E+03  4.562217E-05  4.562217E-05  1.389016E-13  5.223813E-14 -9.495846E-14
         7   5 -1.380527E+03  4.562217E-05  4.562217E-05  6.674864E-33 -4.115633E-15  5.300007E-14
         7   6 -1.380527E+03  4.562217E-05  4.562217E-05  6.945080E-14  5.231314E-14  8.833345E-15
         7   7 -1.380527E+03  4.562217E-05  4.562217E-05 -5.636608E-33 -2.559397E-14 -1.766669E-14
         7   8 -1.380527E+03  4.562217E-05  4.562217E-05  6.945080E-14  5.253818E-14 -2.208336E-14
         8   1 -1.380527E+03  4.562217E-05  4.562217E-05  1.396517E-13  2.300933E-13 -4.416672E-15
         8   2 -1.380527E+03  4.562217E-05  4.562217E-05  3.002567E-13 -7.592430E-14  6.404175E-14
         8   3 -1.380527E+03  4.562217E-05  4.562217E-05  1.914398E-13  3.042223E-14 -3.975005E-14
         8   4 -1.380527E+03  4.562217E-05  4.562217E-05  2.218245E-13 -2.166587E-14  1.479585E-13
         8   5 -1.380527E+03  4.562217E-05  4.562217E-05  8.726358E-14  2.128806E-13 -8.833345E-15
         8   6 -1.380527E+03  4.562217E-05  4.562217E-05 -1.558142E-13 -2.802685E-14  7.066676E-14
         8   7 -1.380527E+03  4.562217E-05  4.562217E-05  6.945080E-14 -1.721267E-14 -7.066676E-14
         8   8 -1.380527E+03  4.562217E-05  4.562217E-05 -1.041762E-13  9.564488E-14  1.457502E-13
         9   1 -1.380527E+03  4.562217E-05  4.562217E-05  2.778032E-13  1.932913E-13  1.766669E-14
         9   2 -1.380527E+03  4.562217E-05  4.562217E-05  1.128575E-13 -1.192373E-13  6.845842E-14
         9   3 -1.380527E+03  4.562217E-05  4.562217E-05  2.778032E-13 -8.606336E-15 -3.032163E-32
         9   4 -1.380527E+03  4.562217E-05  4.562217E-05  1.215389E-13  7.820716E-14  8.833345E-14
         9   5 -1.380527E+03  4.562217E-05  4.562217E-05 -1.389016E-13  4.378182E-14  7.066676E-14
         9   6 -1.380527E+03  4.562217E-05  4.562217E-05 -3.472540E-14 -7.775708E-14  1.082085E-13
         9   7 -1.380527E+03  4.562217E-05  4.562217E-05 -1.389016E-13 -3.442534E-14  7.066676E-14
         9   8 -1.380527E+03  4.562217E-05  4.562217E-05 -3.472540E-14  3.000556E-16  1.148335E-13

 strains (elem, integ.pnt.,exx,eyy,ezz,exy,exz,eyz) forset EALL and time  0.5000000E-01

         1   1 -6.644444E-03  1.993333E-03  1.993333E-03 -1.950256E-19  1.322750E-20 -1.763242E-38
         1   2 -6.644444E-03  1.993333E-03  1.993333E-03 -4.104204E-19  8.053839E-20 -1.222156E-19
         1   3 -6.644444E-03  1.993333E-03  1.993333E-03 -2.528162E-20 -9.387041E-22 -1.086361E-19
         1   4 -6.644444E-03  1.993333E-03  1.993333E-03 -2.406765E-19  5.375484E-19 -2.444313E-19
         1   5 -6.644444E-03  1.993333E-03  1.993333E-03 -1.348564E-19 -6.824959E-20  1.086361E-19
         1   6 -6.644444E-03  1.993333E-03  1.993333E-03 -4.579487E-19 -9.387041E-22 -2.851698E-19
         1   7 -6.644444E-03  1.993333E-03  1.993333E-03 -1.076974E-19 -3.268471E-19  1.086361E-19
         1   8 -6.644444E-03  1.993333E-03  1.993333E-03 -4.307897E-19 -3.754816E-21 -4.073854E-19
         2   1 -6.644444E-03  1.993333E-03  1.993333E-03 -8.887384E-19  5.375484E-19 -8.147709E-20
         2   2 -6.644444E-03  1.993333E-03  1.993333E-03 -8.887384E-19  7.125567E-19 -2.036927E-20
         2   3 -6.644444E-03  1.993333E-03  1.993333E-03 -9.711542E-19  1.882358E-19 -2.172722E-19
         2   4 -6.644444E-03  1.993333E-03  1.993333E-03 -6.749863E-19  1.534453E-18 -1.357951E-19
         2   5 -6.644444E-03  1.993333E-03  1.993333E-03 -4.307897E-19  6.962784E-19 -2.715903E-19
         2   6 -6.644444E-03  1.993333E-03  1.993333E-03 -1.615461E-18  4.135727E-19  2.987493E-19
         2   7 -6.644444E-03  1.993333E-03  1.993333E-03  3.221535E-19 -1.086361E-19 -2.715903E-19
         2   8 -6.644444E-03  1.993333E-03  1.993333E-03 -1.831795E-18  1.129884E-18  6.789757E-20
         3   1 -6.644444E-03  1.993333E-03  1.993333E-03 -2.425539E-19  1.143933E-18  2.715903E-20
         3   2 -6.644444E-03  1.993333E-03  1.993333E-03  5.113280E-19 -4.715282E-19  6.110782E-20
         3   3 -6.644444E-03  1.993333E-03  1.993333E-03 -2.153948E-19  1.696000E-18 -1.086361E-19
         3   4 -6.644444E-03  1.993333E-03  1.993333E-03 -2.692435E-19  2.234487E-18  9.505660E-20
         3   5 -6.644444E-03  1.993333E-03  1.993333E-03 -1.723159E-18  8.063226E-19  1.765337E-19
         3   6 -6.644444E-03  1.993333E-03  1.993333E-03 -2.153948E-19 -7.283656E-19  8.147709E-20
         3   7 -6.644444E-03  1.993333E-03  1.993333E-03 -1.614523E-18  2.045312E-18  1.086361E-19
         3   8 -6.644444E-03  1.993333E-03  1.993333E-03 -1.067587E-19  1.291430E-18 -1.357951E-20
         4   1 -6.644444E-03  1.993333E-03  1.993333E-03  3.111555E-19  5.291000E-20 -1.086361E-19
         4   2 -6.644444E-03  1.993333E-03  1.993333E-03  2.842311E-19  5.913971E-19  1.222156E-19
         4   3 -6.644444E-03  1.993333E-03  1.993333E-03  8.030371E-20  8.006903E-20  2.172722E-19
         4   4 -6.644444E-03  1.993333E-03  1.993333E-03  5.337936E-20  5.647074E-19  1.086361E-19
         4   5 -6.644444E-03  1.993333E-03  1.993333E-03  5.337936E-20 -2.732330E-19 -1.901132E-19
         4   6 -6.644444E-03  1.993333E-03  1.993333E-03  3.764716E-19  1.306323E-19  1.357951E-19
         4   7 -6.644444E-03  1.993333E-03  1.993333E-03  1.076974E-19 -5.572612E-20  1.086361E-19
         4   8 -6.644444E-03  1.993333E-03  1.993333E-03  4.307897E-19  4.289123E-19  1.629542E-19
         5   1 -6.644444E-03  1.993333E-03  1.993333E-03  8.587632E-19  1.561613E-18 -1.901132E-19
         5   2 -6.644444E-03  1.993333E-03  1.993333E-03  5.356710E-19 -1.750083E-19  1.222156E-19
         5   3 -6.644444E-03  1.993333E-03  1.993333E-03  2.116400E-19 -2.715903E-20  1.629542E-19
         5   4 -6.644444E-03  1.993333E-03  1.993333E-03  1.847157E-19  1.534453E-18  2.851698E-19
         5   5 -6.644444E-03  1.993333E-03  1.993333E-03  7.529432E-19  9.421177E-19  1.645692E-36
         5   6 -6.644444E-03  1.993333E-03  1.993333E-03  9.683380E-19 -9.022005E-19  4.209650E-19
         5   7 -6.644444E-03  1.993333E-03  1.993333E-03  4.270348E-19  3.221535E-19  1.086361E-19
         5   8 -6.644444E-03  1.993333E-03  1.993333E-03  5.347323E-19  1.560674E-18  2.444313E-19
         6   1 -6.644444E-03  1.993333E-03  1.993333E-03  8.615793E-19  8.877997E-19 -5.431806E-20
         6   2 -6.644444E-03  1.993333E-03  1.993333E-03  3.230922E-19 -1.885409E-18  1.629542E-19
         6   3 -6.644444E-03  1.993333E-03  1.993333E-03  8.615793E-19  1.210892E-18  2.987493E-19
         6   4 -6.644444E-03  1.993333E-03  1.993333E-03  8.077306E-19  2.287866E-18  3.530674E-19
         6   5 -6.644444E-03  1.993333E-03  1.993333E-03  9.702154E-19  1.329790E-19  5.431806E-20
         6   6 -6.644444E-03  1.993333E-03  1.993333E-03 -1.067587E-19 -5.132055E-19  1.357951E-20
         6   7 -6.644444E-03  1.993333E-03  1.993333E-03  8.615793E-19  1.397250E-18  4.345445E-19
         6   8 -6.644444E-03  1.993333E-03  1.993333E-03  3.526483E-38  1.074158E-18  1.629542E-19
         7   1 -6.644444E-03  1.993333E-03  1.993333E-03  8.030371E-20  6.695887E-20  8.147709E-20
         7   2 -6.644444E-03  1.993333E-03  1.993333E-03  8.072613E-19  7.669921E-19 -4.073854E-20
         7   3 -6.644444E-03  1.993333E-03  1.993333E-03  1.346218E-19  5.291000E-20 -5.703396E-19
         7   4 -6.644444E-03  1.993333E-03  1.993333E-03  8.615793E-19  3.221535E-19 -5.839191E-19
         7   5 -6.644444E-03  1.993333E-03  1.993333E-03 -3.526483E-38 -2.833241E-20  3.259084E-19
         7   6 -6.644444E-03  1.993333E-03  1.993333E-03  4.307897E-19  3.216842E-19  5.431806E-20
         7   7 -6.644444E-03  1.993333E-03  1.993333E-03 -7.052966E-38 -1.643622E-19 -1.086361E-19
         7   8 -6.644444E-03  1.993333E-03  1.993333E-03  4.307897E-19  3.202761E-19 -1.357951E-19
         8   1 -6.644444E-03  1.993333E-03  1.993333E-03  8.568858E-19  1.426756E-18 -2.715903E-20
         8   2 -6.644444E-03  1.993333E-03  1.993333E-03  1.853087E-18 -4.714109E-19  3.938059E-19
         8   3 -6.644444E-03  1.993333E-03  1.993333E-03  1.181855E-18  1.882358E-19 -2.444313E-19
         8   4 -6.644444E-03  1.993333E-03  1.993333E-03  1.370326E-18 -1.348564E-19  9.098275E-19
         8   5 -6.644444E-03  1.993333E-03  1.993333E-03  5.356710E-19  1.318120E-18 -5.431806E-20
         8   6 -6.644444E-03  1.993333E-03  1.993333E-03 -9.720929E-19 -1.761817E-19  4.345445E-19
         8   7 -6.644444E-03  1.993333E-03  1.993333E-03  4.307897E-19 -1.086361E-19 -4.345445E-19
         8   8 -6.644444E-03  1.993333E-03  1.993333E-03 -6.461845E-19  5.913971E-19  8.962480E-19
         9   1 -6.644444E-03  1.993333E-03  1.993333E-03  1.723159E-18  1.197312E-18  1.086361E-19
         9   2 -6.644444E-03  1.993333E-03  1.993333E-03  7.000332E-19 -7.412411E-19  4.209650E-19
         9   3 -6.644444E-03  1.993333E-03  1.993333E-03  1.723159E-18 -5.431806E-20  0.000000E+00
         9   4 -6.644444E-03  1.993333E-03  1.993333E-03  7.538819E-19  4.841690E-19  5.431806E-19
         9   5 -6.644444E-03  1.993333E-03  1.993333E-03 -8.615793E-19  2.668968E-19  4.345445E-19
         9   6 -6.644444E-03  1.993333E-03  1.993333E-03 -2.153948E-19 -4.869851E-19  6.653962E-19
         9   7 -6.644444E-03  1.993333E-03  1.993333E-03 -8.615793E-19 -2.172722E-19  4.345445E-19
         9   8 -6.644444E-03  1.993333E-03  1.993333E-03 -2.153948E-19 -1.877408E-21  7.061348E-19

 displacements (vx,vy,vz) for set NALL and time  0.1000000E+00

         1  0.000000E+00  0.000000E+00  0.000000E+00
         2 -6.666667E+00  0.000000E+00  0.000000E+00
         3 -1.333333E+01  0.000000E+00  0.000000E+00
         4 -2.000000E+01  0.000000E+00  0.000000E+00
         5  0.000000E+00  1.982735E+00  0.000000E+00
         6 -6.666667E+00  1.982735E+00  0.000000E+00
         7 -1.333333E+01  1.982735E+00  0.000000E+00
         8 -2.000000E+01  1.982735E+00  0.000000E+00
         9  0.000000E+00  3.965471E+00  0.000000E+00
        10 -6.666667E+00  3.965471E+00  0.000000E+00
        11 -1.333333E+01  3.965471E+00  0.000000E+00
        12 -2.000000E+01  3.965471E+00  0.000000E+00
        13  0.000000E+00  5.948206E+00  0.000000E+00
        14 -6.666667E+00  5.948206E+00  0.000000E+00
        15 -1.333333E+01  5.948206E+00  0.000000E+00
        16 -2.000000E+01  5.948206E+00  0.000000E+00
        17  0.000000E+00  0.000000E+00  2.775830E+00
        18 -6.666667E+00  0.000000E+00  2.775830E+00
        19 -1.333333E+01  0.000000E+00  2.775830E+00
        20 -2.000000E+01  0.000000E+00  2.775830E+00
        21  0.000000E+00  1.982735E+00  2.775830E+00
        22 -6.666667E+00  1.982735E+00  2.775830E+00
        23 -1.333333E+01  1.982735E+00  2.775830E+00
        24 -2.000000E+01  1.982735E+00  2.775830E+00
        25  0.000000E+00  3.965471E+00  2.775830E+00
        26 -6.666667E+00  3.965471E+00  2.775830E+00
        27 -1.333333E+01  3.965471E+00  2.775830E+00
        28 -2.000000E+01  3.965471E+00  2.775830E+00
        29  0.000000E+00  5.948206E+00  2.775830E+00
        30 -6.666667E+00  5.948206E+00  2.775830E+00
        31 -1.333333E+01  5.948206E+00  2.775830E+00
        32 -2.000000E+01  5.948206E+00  2.775830E+00

 stresses (elem, integ.pnt.,sxx,syy,szz,sxy,sxz,syz) for set EALL and time  0.1000000E+00

         1   1 -2.722613E+03 -4.608926E-13 -4.608926E-13 -2.596668E-14  3.442452E-14 -4.455275E-15
         1   2 -2.722613E+03 -2.304463E-13 -2.304463E-13  8.457842E-15  1.204858E-13 -1.113819E-14
         1   3 -2.722613E+03 -2.304463E-13 -2.304463E-13 -5.931509E-16  2.596668E-14 -8.910551E-15
         1   4 -2.722613E+03  2.304463E-13  2.304463E-13  3.383137E-14  1.292402E-13 -7.128440E-14
         1   5 -2.722613E+03 -2.304463E-13  1.168100E-32 -3.442452E-14  1.750884E-14  2.227638E-14
         1   6 -2.722613E+03 -2.304463E-13 -4.106166E-32 -4.232022E-32  1.035701E-13 -2.004874E-14
         1   7 -2.722613E+03 -4.608926E-13 -4.608926E-13 -3.442452E-14 -3.323822E-14  6.105458E-32
         1   8 -2.722613E+03 -4.608926E-13 -4.608926E-13 -6.067494E-32  1.186302E-15 -8.019496E-14
         2   1 -2.722613E+03 -4.608926E-13 -4.608926E-13  2.385222E-14  2.412682E-13  1.002670E-31
         2   2 -2.722613E+03 -6.913389E-13 -6.913389E-13 -1.966173E-15  2.498743E-13 -1.782110E-14
         2   3 -2.722613E+03 -6.913389E-13 -6.913389E-13  2.655983E-14 -2.375765E-32 -7.128440E-14
         2   4 -2.722613E+03 -6.913389E-13 -6.913389E-13  1.556518E-13  2.409716E-13 -4.009748E-14
         2   5 -2.722613E+03 -4.608926E-13 -4.608926E-13 -8.457842E-15  2.077334E-13 -4.900803E-14
         2   6 -2.722613E+03 -4.608926E-13 -4.608926E-13  6.039120E-14 -2.053608E-13  4.678039E-14
         2   7 -2.722613E+03 -6.913389E-13 -6.913389E-13 -1.715294E-13 -6.884904E-14 -3.564220E-14
         2   8 -2.722613E+03 -6.913389E-13 -6.913389E-13  5.931509E-16  1.376981E-13  2.673165E-14
         3   1 -2.722613E+03 -2.304463E-13 -2.304463E-13  2.023182E-13  2.240560E-13 -4.455275E-15
         3   2 -2.722613E+03 -2.304463E-13 -4.608926E-13  1.678937E-13 -4.300099E-13  4.455275E-15
         3   3 -2.722613E+03 -2.304463E-13 -2.304463E-13  1.896314E-13  2.331069E-13 -8.910551E-15
         3   4 -2.722613E+03 -2.304463E-13 -4.608926E-13 -1.029770E-13  6.806257E-13  2.673165E-14
         3   5 -2.722613E+03 -2.304463E-13 -2.304463E-13  1.691568E-14  9.600202E-14 -8.910551E-15
         3   6 -2.722613E+03 -4.608926E-13 -4.608926E-13 -5.193336E-14 -2.568493E-13 -9.578842E-14
         3   7 -2.722613E+03 -6.913389E-13 -6.913389E-13 -2.077334E-13  2.777688E-13 -3.564220E-14
         3   8 -2.722613E+03 -4.608926E-13 -6.913389E-13 -1.186302E-15  3.679712E-14 -1.616977E-31
         4   1 -2.722613E+03 -4.608926E-13  4.248143E-33  5.074705E-14  5.193336E-14 -6.237385E-14
         4   2 -2.722613E+03 -2.304463E-13 -2.304463E-13 -8.695103E-14  1.379947E-13 -1.782110E-14
         4   3 -2.722613E+03 -4.608926E-13 -4.608926E-13  6.766274E-14  6.884904E-14 -8.910551E-14
         4   4 -2.722613E+03  3.408589E-31 -2.886804E-32 -7.003534E-14  2.065471E-13 -1.336583E-13
         4   5 -2.722613E+03 -2.304463E-13  1.807177E-31 -3.442452E-14 -7.716404E-15 -9.801606E-14
         4   6 -2.722613E+03 -2.304463E-13 -4.747367E-32  2.858357E-32  6.973877E-14  4.009748E-14
         4   7 -2.722613E+03 -4.608926E-13 -4.608926E-13 -3.442452E-14  1.365118E-13 -1.425688E-13
         4   8 -2.722613E+03 -6.913389E-13 -6.913389E-13 -4.905043E-31  2.053608E-13 -9.801606E-14
         5   1 -2.722613E+03 -4.608926E-13 -4.608926E-13  4.406866E-14  2.753962E-13 -8.019496E-14
         5   2 -2.722613E+03 -4.608926E-13 -4.608926E-13  2.161913E-13 -9.036436E-14  2.673165E-14
         5   3 -2.722613E+03  4.555401E-31 -2.309443E-32 -2.053608E-13  1.080302E-31 -5.346330E-14
         5   4 -2.722613E+03  2.304463E-13  4.608926E-13  1.302783E-13  3.614575E-13  4.900803E-14
         5   5 -2.722613E+03 -4.608926E-13 -4.608926E-13 -3.383137E-14  3.614575E-13 -4.455275E-14
         5   6 -2.722613E+03 -2.304463E-13 -2.304463E-13  3.501767E-14 -1.764257E-13  1.693005E-13
         5   7 -2.722613E+03 -4.608926E-13 -4.608926E-13  1.376981E-13 -6.884904E-14 -3.564220E-14
         5   8 -2.722613E+03 -4.608926E-13 -4.608926E-13  3.442452E-14  1.204858E-13  1.069266E-13
         6   1 -2.722613E+03 -4.608926E-13 -2.304463E-13 -2.960245E-14  2.204202E-13 -3.564220E-14
         6   2 -2.722613E+03 -2.304463E-13 -2.304463E-13  5.645885E-14 -6.401928E-13  1.247477E-13
         6   3 -2.722613E+03 -4.608926E-13 -2.304463E-13 -5.074705E-14  2.161913E-13  8.019496E-14
         6   4 -2.722613E+03 -2.304463E-13 -4.608926E-13  1.902246E-13  6.637100E-13  1.514794E-13
         6   5 -2.722613E+03  1.891661E-31  5.394111E-31  8.457842E-14 -8.279897E-14  7.128440E-14
         6   6 -2.722613E+03 -4.608926E-13 -4.608926E-13  1.572938E-14 -2.979522E-13  1.470241E-13
         6   7 -2.722613E+03 -4.608926E-13 -4.608926E-13 -2.077334E-13  2.101060E-13  1.069266E-13
         6   8 -2.722613E+03 -6.913389E-13 -9.217852E-13 -1.186302E-15  2.445305E-13  1.336583E-13
         7   1 -2.722613E+03  1.362022E-31  7.259327E-32  6.751445E-14  3.004731E-14  5.346330E-14
         7   2 -2.722613E+03  3.738154E-31 -4.608926E-13  4.169606E-14  2.452006E-13 -1.069266E-13
         7   3 -2.722613E+03  4.608926E-13  4.608926E-13  5.905661E-14  2.626325E-14 -1.603899E-13
         7   4 -2.722613E+03  2.304463E-13 -8.675168E-32  3.323822E-14  1.123246E-13 -1.202924E-13
         7   5 -2.722613E+03 -4.608926E-13 -4.608926E-13 -3.501767E-14  1.026804E-13  1.247477E-13
         7   6 -2.722613E+03 -2.304463E-13  1.447451E-31 -1.038667E-13  2.231662E-13 -8.019496E-14
         7   7 -2.722613E+03 -2.304463E-13  2.901830E-31  1.341392E-13 -4.985733E-14  3.564220E-14
         7   8 -2.722613E+03 -4.608926E-13 -4.608926E-13  6.529013E-14  1.050530E-13  2.673165E-14
         8   1 -2.722613E+03  2.304463E-13  2.304463E-13  2.372604E-15  5.423345E-13 -1.247477E-13
         8   2 -2.722613E+03 -2.304463E-13  5.476666E-32  1.400707E-13 -2.136704E-14 -5.791858E-14
         8   3 -2.722613E+03  4.608926E-13  4.608926E-13 -6.529013E-14 -1.026804E-13 -8.910551E-15
         8   4 -2.722613E+03  2.304463E-13  2.304463E-13 -1.365335E-14  1.727158E-13  7.573968E-14
         8   5 -2.722613E+03 -2.304463E-13  1.903310E-31  7.003534E-14  3.620506E-13 -1.960321E-13
         8   6 -2.722613E+03  4.608926E-13  2.878228E-31 -3.323822E-14 -5.534669E-14 -1.381135E-13
         8   7 -2.722613E+03  1.210663E-31 -6.913389E-13 -6.766274E-14 -1.353255E-13 -7.128440E-14
         8   8 -2.722613E+03 -4.608926E-13 -6.913389E-13 -6.766274E-14  3.466178E-13  4.455275E-14
         9   1 -2.722613E+03 -4.608926E-13 -2.304463E-13  1.784435E-31  3.538893E-13  6.875283E-32
         9   2 -2.722613E+03  6.033420E-31 -2.304463E-13  8.606130E-14 -2.657520E-13  1.470241E-13
         9   3 -2.722613E+03 -4.608926E-13 -6.913389E-13  1.353255E-13  2.500226E-13  1.069266E-13
         9   4 -2.722613E+03  2.890475E-30 -4.608926E-13  3.762971E-13  1.467491E-13  2.405849E-13
         9   5 -2.722613E+03 -3.692093E-31 -2.304463E-13 -1.739021E-13  2.529884E-13 -1.960321E-13
         9   6 -2.722613E+03 -2.304463E-13 -4.608926E-13  3.264507E-14 -2.633794E-13  6.237385E-14
         9   7 -2.722613E+03 -1.844629E-31 -6.913389E-13 -4.745207E-15  1.739021E-13 -1.069266E-13
         9   8 -2.722613E+03  1.695360E-30 -6.913389E-13  2.018019E-13 -3.264507E-14  6.237385E-14

 strains (elem, integ.pnt.,exx,eyy,ezz,exy,exz,eyz) forset EALL and time  0.1000000E+00

         1   1 -1.324444E-02  3.973333E-03  3.973333E-03 -1.595242E-19  2.139492E-19 -2.721254E-20
         1   2 -1.324444E-02  3.973333E-03  3.973333E-03  5.442508E-20  7.488223E-19 -6.803135E-20
         1   3 -1.324444E-02  3.973333E-03  3.973333E-03  3.751080E-21  1.595242E-19 -5.442508E-20
         1   4 -1.324444E-02  3.973333E-03  3.973333E-03  2.177003E-19  8.013718E-19 -4.354006E-19
         1   5 -1.324444E-02  3.973333E-03  3.973333E-03 -2.139492E-19  1.050991E-19  1.360627E-19
         1   6 -1.324444E-02  3.973333E-03  3.973333E-03  1.175494E-38  6.399721E-19 -1.224564E-19
         1   7 -1.324444E-02  3.973333E-03  3.973333E-03 -2.139492E-19 -2.214514E-19  1.880791E-37
         1   8 -1.324444E-02  3.973333E-03  3.973333E-03  4.701977E-38 -7.502160E-21 -4.898257E-19
         2   1 -1.324444E-02  3.973333E-03  3.973333E-03  1.459179E-19  1.495769E-18  8.463559E-37
         2   2 -1.324444E-02  3.973333E-03  3.973333E-03 -1.454404E-20  1.549256E-18 -1.088502E-19
         2   3 -1.324444E-02  3.973333E-03  3.973333E-03  1.557731E-19  2.350989E-37 -4.354006E-19
         2   4 -1.324444E-02  3.973333E-03  3.973333E-03  9.580827E-19  1.497645E-18 -2.449128E-19
         2   5 -1.324444E-02  3.973333E-03  3.973333E-03 -5.442508E-20  1.276193E-18 -2.993379E-19
         2   6 -1.324444E-02  3.973333E-03  3.973333E-03  3.734734E-19 -1.291198E-18  2.857317E-19
         2   7 -1.324444E-02  3.973333E-03  3.973333E-03 -1.073497E-18 -4.278985E-19 -2.177003E-19
         2   8 -1.324444E-02  3.973333E-03  3.973333E-03 -3.751080E-21  8.557969E-19  1.632752E-19
         3   1 -1.324444E-02  3.973333E-03  3.973333E-03  1.256483E-18  1.388794E-18 -2.721254E-20
         3   2 -1.324444E-02  3.973333E-03  3.973333E-03  1.042534E-18 -2.676241E-18  2.721254E-20
         3   3 -1.324444E-02  3.973333E-03  3.973333E-03  1.174845E-18  1.439468E-18 -5.442508E-20
         3   4 -1.324444E-02  3.973333E-03  3.973333E-03 -6.437232E-19  4.220808E-18  1.632752E-19
         3   5 -1.324444E-02  3.973333E-03  3.973333E-03  1.088502E-19  5.799204E-19 -5.442508E-20
         3   6 -1.324444E-02  3.973333E-03  3.973333E-03 -3.190483E-19 -1.613059E-18 -5.850696E-19
         3   7 -1.324444E-02  3.973333E-03  3.973333E-03 -1.276193E-18  1.696590E-18 -2.177003E-19
         3   8 -1.324444E-02  3.973333E-03  3.973333E-03  7.502160E-21  1.989449E-19 -5.642373E-37
         4   1 -1.324444E-02  3.973333E-03  3.973333E-03  3.265505E-19  3.190483E-19 -3.809755E-19
         4   2 -1.324444E-02  3.973333E-03  3.973333E-03 -5.292465E-19  8.539214E-19 -1.088502E-19
         4   3 -1.324444E-02  3.973333E-03  3.973333E-03  4.354006E-19  4.278985E-19 -5.442508E-19
         4   4 -1.324444E-02  3.973333E-03  3.973333E-03 -4.203963E-19  1.283695E-18 -8.163762E-19
         4   5 -1.324444E-02  3.973333E-03  3.973333E-03 -2.139492E-19 -5.911393E-20 -5.986758E-19
         4   6 -1.324444E-02  3.973333E-03  3.973333E-03 -1.763242E-37  4.222718E-19  2.449128E-19
         4   7 -1.324444E-02  3.973333E-03  3.973333E-03 -2.139492E-19  8.632991E-19 -8.708012E-19
         4   8 -1.324444E-02  3.973333E-03  3.973333E-03  2.350989E-37  1.291198E-18 -5.986758E-19
         5   1 -1.324444E-02  3.973333E-03  3.973333E-03  2.608721E-19  1.711594E-18 -4.898257E-19
         5   2 -1.324444E-02  3.973333E-03  3.973333E-03  1.330618E-18 -5.616167E-19  1.632752E-19
         5   3 -1.324444E-02  3.973333E-03  3.973333E-03 -1.291198E-18  3.761582E-37 -3.265505E-19
         5   4 -1.324444E-02  3.973333E-03  3.973333E-03  7.948074E-19  2.246467E-18  2.993379E-19
         5   5 -1.324444E-02  3.973333E-03  3.973333E-03 -2.177003E-19  2.246467E-18 -2.721254E-19
         5   6 -1.324444E-02  3.973333E-03  3.973333E-03  2.101981E-19 -1.096490E-18  1.034076E-18
         5   7 -1.324444E-02  3.973333E-03  3.973333E-03  8.557969E-19 -4.278985E-19 -2.177003E-19
         5   8 -1.324444E-02  3.973333E-03  3.973333E-03  2.139492E-19  7.488223E-19  6.531009E-19
         6   1 -1.324444E-02  3.973333E-03  3.973333E-03 -1.904878E-19  1.357831E-18 -2.177003E-19
         6   2 -1.324444E-02  3.973333E-03  3.973333E-03  3.443853E-19 -3.990900E-18  7.619511E-19
         6   3 -1.324444E-02  3.973333E-03  3.973333E-03 -3.265505E-19  1.330618E-18  4.898257E-19
         6   4 -1.324444E-02  3.973333E-03  3.973333E-03  1.171094E-18  4.111958E-18  9.252263E-19
         6   5 -1.324444E-02  3.973333E-03  3.973333E-03  5.442508E-19 -5.555040E-19  4.354006E-19
         6   6 -1.324444E-02  3.973333E-03  3.973333E-03  1.163523E-19 -1.892687E-18  8.980138E-19
         6   7 -1.324444E-02  3.973333E-03  3.973333E-03 -1.276193E-18  1.261189E-18  6.531009E-19