
 displacements (vx,vy,vz) for set NALL and time  0.1000000E-02

         1  0.000000E+00  0.000000E+00  0.000000E+00
         2 -2.857143E-10  0.000000E+00  0.000000E+00
         3 -1.500000E-02  0.000000E+00  0.000000E+00
         4 -1.500000E-02  0.000000E+00  0.000000E+00
         5 -3.000000E-02  0.000000E+00  0.000000E+00
         6 -3.000000E-02  0.000000E+00  0.000000E+00
         7  0.000000E+00 -2.857143E-10  0.000000E+00
         8 -2.857143E-10 -2.857143E-10  0.000000E+00
         9 -1.500000E-02 -2.857143E-10  0.000000E+00
        10 -1.500000E-02 -2.857143E-10  0.000000E+00
        11 -3.000000E-02 -2.857143E-10  0.000000E+00
        12 -3.000000E-02 -2.857143E-10  0.000000E+00
        13  0.000000E+00 -1.500000E-02  0.000000E+00
        14 -2.857143E-10 -1.500000E-02  0.000000E+00
        15 -1.500000E-02 -1.500000E-02  0.000000E+00
        16 -1.500000E-02 -1.500000E-02  0.000000E+00
        17 -3.000000E-02 -1.500000E-02  0.000000E+00
        18 -3.000000E-02 -1.500000E-02  0.000000E+00
        19  0.000000E+00 -1.500000E-02  0.000000E+00
        20 -2.857143E-10 -1.500000E-02  0.000000E+00
        21 -1.500000E-02 -1.500000E-02  0.000000E+00
        22 -1.500000E-02 -1.500000E-02  0.000000E+00
        23 -3.000000E-02 -1.500000E-02  0.000000E+00
        24 -3.000000E-02 -1.500000E-02  0.000000E+00
        25  0.000000E+00 -3.000000E-02  0.000000E+00
        26 -2.857143E-10 -3.000000E-02  0.000000E+00
        27 -1.500000E-02 -3.000000E-02  0.000000E+00
        28 -1.500000E-02 -3.000000E-02  0.000000E+00
        29 -3.000000E-02 -3.000000E-02  0.000000E+00
        30 -3.000000E-02 -3.000000E-02  0.000000E+00
        31  0.000000E+00 -3.000000E-02  0.000000E+00
        32 -2.857143E-10 -3.000000E-02  0.000000E+00
        33 -1.500000E-02 -3.000000E-02  0.000000E+00
        34 -1.500000E-02 -3.000000E-02  0.000000E+00
        35 -3.000000E-02 -3.000000E-02  0.000000E+00
        36 -3.000000E-02 -3.000000E-02  0.000000E+00
        37  0.000000E+00  0.000000E+00  3.428571E-10
        38 -2.857143E-10  0.000000E+00  3.428571E-10
        39 -1.500000E-02  0.000000E+00  3.428571E-10
        40 -1.500000E-02  0.000000E+00  3.428571E-10
        41 -3.000000E-02  0.000000E+00  3.428571E-10
        42 -3.000000E-02  0.000000E+00  3.428571E-10
        43  0.000000E+00 -2.857143E-10  3.428571E-10
        44 -2.857143E-10 -2.857143E-10  3.428571E-10
        45 -1.500000E-02 -2.857143E-10  3.428571E-10
        46 -1.500000E-02 -2.857143E-10  3.428571E-10
        47 -3.000000E-02 -2.857143E-10  3.428571E-10
        48 -3.000000E-02 -2.857143E-10  3.428571E-10
        49  0.000000E+00 -1.500000E-02  3.428571E-10
        50 -2.857143E-10 -1.500000E-02  3.428571E-10
        51 -1.500000E-02 -1.500000E-02  3.428571E-10
        52 -1.500000E-02 -1.500000E-02  3.428571E-10
        53 -3.000000E-02 -1.500000E-02  3.428571E-10
        54 -3.000000E-02 -1.500000E-02  3.428571E-10
        55  0.000000E+00 -1.500000E-02  3.428571E-10
        56 -2.857143E-10 -1.500000E-02  3.428571E-10
        57 -1.500000E-02 -1.500000E-02  3.428571E-10
        58 -1.500000E-02 -1.500000E-02  3.428571E-10
        59 -3.000000E-02 -1.500000E-02  3.428571E-10
        60 -3.000000E-02 -1.500000E-02  3.428571E-10
        61  0.000000E+00 -3.000000E-02  3.428571E-10
        62 -2.857143E-10 -3.000000E-02  3.428571E-10
        63 -1.500000E-02 -3.000000E-02  3.428571E-10
        64 -1.500000E-02 -3.000000E-02  3.428571E-10
        65 -3.000000E-02 -3.000000E-02  3.428571E-10
        66 -3.000000E-02 -3.000000E-02  3.428571E-10
        67  0.000000E+00 -3.000000E-02  3.428571E-10
        68 -2.857143E-10 -3.000000E-02  3.428571E-10
        69 -1.500000E-02 -3.000000E-02  3.428571E-10
        70 -1.500000E-02 -3.000000E-02  3.428571E-10
        71 -3.000000E-02 -3.000000E-02  3.428571E-10
        72 -3.000000E-02 -3.000000E-02  3.428571E-10

 stresses (elem, integ.pnt.,sxx,syy,szz,sxy,sxz,syz) for set EALL and time  0.1000000E-02

         1   1 -1.714286E-07 -1.714286E-07 -2.646978E-23 -1.019451E-24  1.784039E-24  1.733067E-23
         1   2 -1.714286E-07 -1.714286E-07 -7.940934E-23 -1.784039E-24  2.140847E-23  2.089875E-23
         1   3 -1.714286E-07 -1.714286E-07 -1.588187E-22 -2.293765E-24  1.019451E-24  1.039840E-22
         1   4 -1.714286E-07 -1.714286E-07 -1.588187E-22 -3.058353E-24  1.223341E-23  1.014354E-22
         1   5 -1.714286E-07 -1.714286E-07  2.117582E-22 -4.077804E-24 -1.146882E-23 -1.733067E-23
         1   6 -1.714286E-07 -1.714286E-07  1.058791E-22 -6.116706E-24  8.155608E-24 -1.936957E-23
         1   7 -1.714286E-07 -1.714286E-07  2.646978E-23 -1.427231E-23 -1.121396E-23  6.932267E-23
         1   8 -1.714286E-07 -1.714286E-07 -7.720368E-50 -1.631122E-23  1.730986E-35  6.116706E-23
         2   1 -1.714286E-07 -1.714286E-07  1.973628E-16  5.513961E-17  1.484835E-16 -1.759878E-18
         2   2 -1.714286E-07 -1.714286E-07  2.225685E-16 -2.014136E-16 -9.096618E-17 -3.296068E-18
         2   3 -1.714286E-07 -1.714286E-07  2.007157E-16  1.887276E-17  3.979863E-16 -4.895763E-17
         2   4 -1.714286E-07 -1.714286E-07  6.094598E-17 -1.521627E-16  2.269508E-16  1.129937E-17
         2   5 -1.714286E-07 -1.714286E-07 -2.096164E-16  1.839044E-17  1.803259E-16  4.062980E-17
         2   6 -1.714286E-07 -1.714286E-07 -5.464498E-17  2.920472E-16  6.060105E-17 -2.689654E-17
         2   7 -1.714286E-07 -1.714286E-07  4.094643E-16  6.863406E-17 -1.834751E-16 -6.567948E-18
         2   8 -1.714286E-07 -1.714286E-07  3.994603E-16  1.370483E-16  1.928030E-16 -1.230110E-17
         3   1 -1.714286E-07 -1.714286E-07 -3.653333E-17 -5.559193E-16  6.215316E-16  1.261423E-18
         3   2 -1.714286E-07 -1.714286E-07 -3.215914E-17  1.624298E-16 -4.730956E-16  1.576603E-17
         3   3 -1.714286E-07 -1.714286E-07  5.877803E-16 -5.794304E-16 -2.276436E-17 -8.082369E-17
         3   4 -1.714286E-07 -1.714286E-07  3.970301E-16 -3.211680E-17 -2.280070E-16  5.135801E-17
         3   5 -1.714286E-07 -1.714286E-07 -4.141547E-16 -1.042931E-15 -1.835824E-16  8.679280E-17
         3   6 -1.714286E-07 -1.714286E-07 -1.626586E-16 -2.219605E-16 -1.151682E-16  2.324766E-17
         3   7 -1.714286E-07 -1.714286E-07  4.154016E-16 -9.016941E-16 -3.586146E-16  4.707686E-18
         3   8 -1.714286E-07 -1.714286E-07  4.717733E-16  1.929331E-16  1.202848E-16  5.883964E-17
         4   1 -1.714286E-07 -1.714286E-07 -7.292469E-17 -1.843805E-16 -4.404777E-18  1.603188E-16
         4   2 -1.714286E-07 -1.714286E-07 -1.453502E-16 -1.741120E-16 -7.992909E-18  2.389763E-16
         4   3 -1.714286E-07 -1.714286E-07 -1.307181E-16 -2.014841E-16  2.470277E-18 -1.071667E-17
         4   4 -1.714286E-07 -1.714286E-07 -1.331808E-16 -1.912155E-16 -1.032000E-17  7.520828E-16
         4   5 -1.714286E-07 -1.714286E-07 -3.883237E-16  6.745724E-17 -1.285072E-17 -5.788051E-18
         4   6 -1.714286E-07 -1.714286E-07  1.036680E-16  6.484277E-17 -1.643886E-17  1.692688E-16
         4   7 -1.714286E-07 -1.714286E-07 -4.654416E-16 -9.569627E-19  2.200948E-17  9.683325E-17
         4   8 -1.714286E-07 -1.714286E-07  9.651289E-17 -3.571431E-18  9.219197E-18  2.376830E-16
         5   1 -1.714286E-07 -1.714286E-07 -3.786412E-16  1.539319E-16 -2.966630E-16 -3.963443E-16
         5   2 -1.714286E-07 -1.714286E-07  8.543301E-17  4.275887E-16 -1.085240E-16  2.206580E-16
         5   3 -1.714286E-07 -1.714286E-07  3.134974E-16  1.368284E-16 -4.628181E-18 -5.427326E-17
         5   4 -1.714286E-07 -1.714286E-07  1.536098E-16  4.960029E-16 -2.782850E-16  1.009332E-16
         5   5 -1.714286E-07 -1.714286E-07 -1.477433E-16  8.893846E-16 -3.436416E-16  1.370645E-16
         5   6 -1.714286E-07 -1.714286E-07  2.650203E-16  8.893846E-16  3.918110E-16  1.555696E-16
         5   7 -1.714286E-07 -1.714286E-07  6.213613E-16  2.736568E-16 -1.541010E-16  3.444318E-17
         5   8 -1.714286E-07 -1.714286E-07  3.845077E-16  3.420710E-16 -3.251365E-16  1.874119E-17
         6   1 -1.714286E-07 -1.714286E-07 -2.913086E-16  7.183491E-16 -3.306073E-16 -4.932402E-17
         6   2 -1.714286E-07 -1.714286E-07  4.081997E-16  4.446923E-16 -8.437138E-16  2.132311E-16
         6   3 -1.714286E-07 -1.714286E-07 -7.482518E-16  7.525562E-16 -2.903983E-16 -3.571879E-16
         6   4 -1.714286E-07 -1.714286E-07 -8.369430E-16  4.446923E-16  5.989863E-16  9.350627E-17
         6   5 -1.714286E-07 -1.714286E-07 -1.317522E-15  6.841420E-16  5.717652E-16 -1.431628E-16
         6   6 -1.714286E-07 -1.714286E-07 -3.614601E-16  2.736568E-16  5.865874E-17 -4.011301E-16
         6   7 -1.714286E-07 -1.714286E-07 -7.482518E-16  2.736568E-16  4.848335E-16 -7.474864E-17
         6   8 -1.714286E-07 -1.714286E-07 -6.573557E-16  6.841420E-16 -1.993085E-16  1.461835E-16
         7   1 -1.714286E-07 -1.714286E-07  8.513087E-16 -1.587810E-16 -2.299712E-17  4.995771E-16
         7   2 -1.714286E-07 -1.714286E-07  8.483881E-16 -2.187565E-16 -2.308536E-17  4.249386E-16
         7   3 -1.714286E-07 -1.714286E-07  4.352993E-16 -2.195256E-17  6.586128E-18  2.259203E-16
         7   4 -1.714286E-07 -1.714286E-07  6.235045E-16 -8.192806E-17  1.087050E-17 -1.565821E-16
         7   5 -1.714286E-07 -1.714286E-07  6.458808E-16 -5.670255E-16 -8.573817E-17 -1.781549E-16
         7   6 -1.714286E-07 -1.714286E-07  8.995134E-16 -6.208793E-16 -8.582641E-17 -3.473786E-16
         7   7 -1.714286E-07 -1.714286E-07 -1.402887E-15 -1.971187E-17  2.029539E-17 -4.518117E-16
         7   8 -1.714286E-07 -1.714286E-07  6.838123E-16 -7.356571E-17  2.457977E-17 -2.105502E-16
         8   1 -1.714286E-07 -1.714286E-07  7.969080E-16  4.104852E-16  2.276671E-16  1.084283E-16
         8   2 -1.714286E-07 -1.714286E-07  1.104002E-15  7.012455E-16  5.663160E-17  9.272166E-17
         8   3 -1.714286E-07 -1.714286E-07  5.259660E-16 -2.736568E-16  2.461675E-16 -2.840006E-17
         8   4 -1.714286E-07 -1.714286E-07 -7.227446E-17  1.026213E-16 -2.748927E-17  1.953430E-16
         8   5 -1.714286E-07 -1.714286E-07  3.094568E-16 -1.424554E-36 -5.313902E-17 -6.533041E-16
         8   6 -1.714286E-07 -1.714286E-07  5.213382E-17  3.420710E-16  4.948228E-17 -3.264783E-16
         8   7 -1.714286E-07 -1.714286E-07  3.207234E-16 -5.473136E-16 -1.025914E-16  1.676663E-16
         8   8 -1.714286E-07 -1.714286E-07 -7.227444E-17 -1.368284E-16 -6.838426E-17 -2.238570E-16
         9   1 -1.714286E-07 -1.714286E-07 -3.795359E-16  1.368284E-16  8.677649E-17 -9.818958E-16
         9   2 -1.714286E-07 -1.714286E-07 -3.109116E-16  2.736568E-16 -2.552945E-16  2.420329E-16
         9   3 -1.714286E-07 -1.714286E-07 -2.820865E-16  3.917165E-36 -3.312356E-16 -5.029964E-16
         9   4 -1.714286E-07 -1.714286E-07 -5.727355E-16 -3.420710E-17  7.924962E-17  1.052045E-16
         9   5 -1.714286E-07 -1.714286E-07  2.361919E-16 -5.473136E-16 -1.183821E-16 -3.819196E-16
         9   6 -1.714286E-07 -1.714286E-07 -1.131882E-15  2.736568E-16 -4.996786E-17  1.373034E-16
         9   7 -1.714286E-07 -1.714286E-07  3.336414E-16 -1.094627E-15 -2.148869E-16 -6.555764E-16
         9   8 -1.714286E-07 -1.714286E-07 -6.753568E-16  3.149615E-37 -9.644329E-18  2.741318E-16

 strains (elem, integ.pnt.,exx,eyy,ezz,exy,exz,eyz) forset EALL and time  0.1000000E-02

         1   1 -5.714286E-13 -5.714286E-13  4.897959E-13 -6.310887E-30  1.104405E-29  1.072851E-28
         1   2 -5.714286E-13 -5.714286E-13  4.897959E-13 -1.104405E-29  1.325286E-28  1.293732E-28
         1   3 -5.714286E-13 -5.714286E-13  4.897959E-13 -1.419950E-29  6.310887E-30  6.437105E-28
         1   4 -5.714286E-13 -5.714286E-13  4.897959E-13 -1.893266E-29  7.573065E-29  6.279333E-28
         1   5 -5.714286E-13 -5.714286E-13  4.897959E-13 -2.524355E-29 -7.099748E-29 -1.072851E-28
         1   6 -5.714286E-13 -5.714286E-13  4.897959E-13 -3.786532E-29  5.048710E-29 -1.199069E-28
         1   7 -5.714286E-13 -5.714286E-13  4.897959E-13 -8.835242E-29 -6.941976E-29  4.291403E-28
         1   8 -5.714286E-13 -5.714286E-13  4.897959E-13 -1.009742E-28 -1.071563E-40  3.786532E-28
         2   1 -5.714286E-13 -5.714286E-13  4.897959E-13  3.413405E-22  9.191837E-22 -1.089448E-23
         2   2 -5.714286E-13 -5.714286E-13  4.897959E-13 -1.246846E-21 -5.631240E-22 -2.040423E-23
         2   3 -5.714286E-13 -5.714286E-13  4.897959E-13  1.168314E-22  2.463724E-21 -3.030710E-22
         2   4 -5.714286E-13 -5.714286E-13  4.897959E-13 -9.419598E-22  1.404933E-21  6.994848E-23
         2   5 -5.714286E-13 -5.714286E-13  4.897959E-13  1.138456E-22  1.116303E-21  2.515178E-22
         2   6 -5.714286E-13 -5.714286E-13  4.897959E-13  1.807911E-21  3.751494E-22 -1.665024E-22
         2   7 -5.714286E-13 -5.714286E-13  4.897959E-13  4.248775E-22 -1.135798E-21 -4.065872E-23
         2   8 -5.714286E-13 -5.714286E-13  4.897959E-13  8.483940E-22  1.193542E-21 -7.614966E-23
         3   1 -5.714286E-13 -5.714286E-13  4.897959E-13 -3.441405E-21  3.847577E-21  7.808808E-24
         3   2 -5.714286E-13 -5.714286E-13  4.897959E-13  1.005518E-21 -2.928687E-21  9.759925E-23
         3   3 -5.714286E-13 -5.714286E-13  4.897959E-13 -3.586950E-21 -1.409223E-22 -5.003371E-22
         3   4 -5.714286E-13 -5.714286E-13  4.897959E-13 -1.988183E-22 -1.411472E-21  3.179305E-22
         3   5 -5.714286E-13 -5.714286E-13  4.897959E-13 -6.456239E-21 -1.136463E-21  5.372888E-22
         3   6 -5.714286E-13 -5.714286E-13  4.897959E-13 -1.374041E-21 -7.129461E-22  1.439141E-22
         3   7 -5.714286E-13 -5.714286E-13  4.897959E-13 -5.581916E-21 -2.219995E-21  2.914282E-23
         3   8 -5.714286E-13 -5.714286E-13  4.897959E-13  1.194348E-21  7.446204E-22  3.642454E-22
         4   1 -5.714286E-13 -5.714286E-13  4.897959E-13 -1.141403E-21 -2.726767E-23  9.924499E-22
         4   2 -5.714286E-13 -5.714286E-13  4.897959E-13 -1.077836E-21 -4.947992E-23  1.479377E-21
         4   3 -5.714286E-13 -5.714286E-13  4.897959E-13 -1.247282E-21  1.529219E-23 -6.634128E-23
         4   4 -5.714286E-13 -5.714286E-13  4.897959E-13 -1.183715E-21 -6.388573E-23  4.655751E-21
         4   5 -5.714286E-13 -5.714286E-13  4.897959E-13  4.175924E-22 -7.955209E-23 -3.583079E-23
         4   6 -5.714286E-13 -5.714286E-13  4.897959E-13  4.014076E-22 -1.017644E-22  1.047854E-21
         4   7 -5.714286E-13 -5.714286E-13  4.897959E-13 -5.924055E-24  1.362491E-22  5.994439E-22
         4   8 -5.714286E-13 -5.714286E-13  4.897959E-13 -2.210886E-23  5.707122E-23  1.471371E-21
         5   1 -5.714286E-13 -5.714286E-13  4.897959E-13  9.529121E-22 -1.836485E-21 -2.453560E-21
         5   2 -5.714286E-13 -5.714286E-13  4.897959E-13  2.646978E-21 -6.718151E-22  1.365978E-21
         5   3 -5.714286E-13 -5.714286E-13  4.897959E-13  8.470329E-22 -2.865065E-23 -3.359773E-22
         5   4 -5.714286E-13 -5.714286E-13  4.897959E-13  3.070494E-21 -1.722717E-21  6.248244E-22
         5   5 -5.714286E-13 -5.714286E-13  4.897959E-13  5.505714E-21 -2.127305E-21  8.484944E-22
         5   6 -5.714286E-13 -5.714286E-13  4.897959E-13  5.505714E-21  2.425497E-21  9.630498E-22
         5   7 -5.714286E-13 -5.714286E-13  4.897959E-13  1.694066E-21 -9.539586E-22  2.132197E-22
         5   8 -5.714286E-13 -5.714286E-13  4.897959E-13  2.117582E-21 -2.012750E-21  1.160169E-22
         6   1 -5.714286E-13 -5.714286E-13  4.897959E-13  4.446923E-21 -2.046617E-21 -3.053392E-22
         6   2 -5.714286E-13 -5.714286E-13  4.897959E-13  2.752857E-21 -5.222990E-21  1.320002E-21
         6   3 -5.714286E-13 -5.714286E-13  4.897959E-13  4.658681E-21 -1.797704E-21 -2.211163E-21
         6   4 -5.714286E-13 -5.714286E-13  4.897959E-13  2.752857E-21  3.708010E-21  5.788483E-22
         6   5 -5.714286E-13 -5.714286E-13  4.897959E-13  4.235165E-21  3.539499E-21 -8.862462E-22
         6   6 -5.714286E-13 -5.714286E-13  4.897959E-13  1.694066E-21  3.631255E-22 -2.483186E-21
         6   7 -5.714286E-13 -5.714286E-13  4.897959E-13  1.694066E-21  3.001350E-21 -4.627297E-22
         6   8 -5.714286E-13 -5.714286E-13  4.897959E-13  4.235165E-21 -1.233815E-21  9.049455E-22
         7   1 -5.714286E-13 -5.714286E-13  4.897959E-13 -9.829297E-22 -1.423631E-22  3.092620E-21
         7   2 -5.714286E-13 -5.714285E-13  4.897959E-13 -1.354207E-21 -1.429094E-22  2.630572E-21
         7   3 -5.714286E-13 -5.714286E-13  4.897959E-13 -1.358968E-22  4.077127E-23  1.398554E-21
         7   4 -5.714286E-13 -5.714285E-13  4.897959E-13 -5.071737E-22  6.729360E-23 -9.693178E-22
         7   5 -5.714286E-13 -5.714286E-13  4.897959E-13 -3.510158E-21 -5.307601E-22 -1.102864E-21
         7   6 -5.714286E-13 -5.714285E-13  4.897959E-13 -3.843539E-21 -5.313064E-22 -2.150439E-21
         7   7 -5.714286E-13 -5.714286E-13  4.897959E-13 -1.220259E-22  1.256381E-22 -2.796929E-21
         7   8 -5.714286E-13 -5.714285E-13  4.897959E-13 -4.554068E-22  1.521605E-22 -1.303406E-21
         8   1 -5.714286E-13 -5.714286E-13  4.897959E-13  2.541099E-21  1.409368E-21  6.712230E-22
         8   2 -5.714286E-13 -5.714285E-13  4.897959E-13  4.341044E-21  3.505766E-22  5.739912E-22
         8   3 -5.714286E-13 -5.714286E-13  4.897959E-13 -1.694066E-21  1.523894E-21 -1.758099E-22
         8   4 -5.714286E-13 -5.714286E-13  4.897959E-13  6.352747E-22 -1.701717E-22  1.209266E-21
         8   5 -5.714286E-13 -5.714286E-13  4.897959E-13  1.653930E-41 -3.289558E-22 -4.044263E-21
         8   6 -5.714286E-13 -5.714286E-13  4.897959E-13  2.117582E-21  3.063189E-22 -2.021056E-21
         8   7 -5.714286E-13 -5.714286E-13  4.897959E-13 -3.388132E-21 -6.350893E-22  1.037934E-21
         8   8 -5.714286E-13 -5.714286E-13  4.897959E-13 -8.470329E-22 -4.233311E-22 -1.385782E-21
         9   1 -5.714286E-13 -5.714286E-13  4.897959E-13  8.470329E-22  5.371878E-22 -6.078403E-21
         9   2 -5.714286E-13 -5.714286E-13  4.897959E-13  1.694066E-21 -1.580395E-21  1.498299E-21
         9   3 -5.714286E-13 -5.714286E-13  4.897959E-13 -1.955748E-43 -2.050506E-21 -3.113787E-21
         9   4 -5.714286E-13 -5.714286E-13  4.897959E-13 -2.117582E-22  4.905929E-22  6.512661E-22
         9   5 -5.714286E-13 -5.714286E-13  4.897959E-13 -3.388132E-21 -7.328413E-22 -2.364264E-21
         9   6 -5.714286E-13 -5.714286E-13  4.897959E-13  1.694066E-21 -3.093249E-22  8.499732E-22
         9   7 -5.714286E-13 -5.714286E-13  4.897959E-13 -6.776264E-21 -1.330252E-21 -4.058330E-21
         9   8 -5.714286E-13 -5.714286E-13  4.897959E-13 -2.261358E-42 -5.970299E-23  1.697006E-21

 displacements (vx,vy,vz) for set NALL and time  0.2000000E-02

         1  0.000000E+00  0.000000E+00  0.000000E+00
         2 -5.714286E-10  0.000000E+00  0.000000E+00
         3 -3.000000E-02  0.000000E+00  0.000000E+00
         4 -3.000000E-02  0.000000E+00  0.000000E+00
         5 -6.000000E-02  0.000000E+00  0.000000E+00
         6 -6.000000E-02  0.000000E+00  0.000000E+00
         7  0.000000E+00 -5.714286E-10  0.000000E+00
         8 -5.714286E-10 -5.714286E-10  0.000000E+00
         9 -3.000000E-02 -5.714286E-10  0.000000E+00
        10 -3.000000E-02 -5.714286E-10  0.000000E+00
        11 -6.000000E-02 -5.714286E-10  0.000000E+00
        12 -6.000000E-02 -5.714286E-10  0.000000E+00
        13  0.000000E+00 -3.000000E-02  0.000000E+00
        14 -5.714286E-10 -3.000000E-02  0.000000E+00
        15 -3.000000E-02 -3.000000E-02  0.000000E+00
        16 -3.000000E-02 -3.000000E-02  0.000000E+00
        17 -6.000000E-02 -3.000000E-02  0.000000E+00
        18 -6.000000E-02 -3.000000E-02  0.000000E+00
        19  0.000000E+00 -3.000000E-02  0.000000E+00
        20 -5.714286E-10 -3.000000E-02  0.000000E+00
        21 -3.000000E-02 -3.000000E-02  0.000000E+00
        22 -3.000000E-02 -3.000000E-02  0.000000E+00
        23 -6.000000E-02 -3.000000E-02  0.000000E+00
        24 -6.000000E-02 -3.000000E-02  0.000000E+00
        25  0.000000E+00 -6.000000E-02  0.000000E+00
        26 -5.714286E-10 -6.000000E-02  0.000000E+00
        27 -3.000000E-02 -6.000000E-02  0.000000E+00
        28 -3.000000E-02 -6.000000E-02  0.000000E+00
        29 -6.000000E-02 -6.000000E-02  0.000000E+00
        30 -6.000000E-02 -6.000000E-02  0.000000E+00
        31  0.000000E+00 -6.000000E-02  0.000000E+00
        32 -5.714286E-10 -6.000000E-02  0.000000E+00
        33 -3.000000E-02 -6.000000E-02  0.000000E+00
        34 -3.000000E-02 -6.000000E-02  0.000000E+00
        35 -6.000000E-02 -6.000000E-02  0.000000E+00
        36 -6.000000E-02 -6.000000E-02  0.000000E+00
        37  0.000000E+00  0.000000E+00  6.857143E-10
        38 -5.714286E-10  0.000000E+00  6.857143E-10
        39 -3.000000E-02  0.000000E+00  6.857143E-10
        40 -3.000000E-02  0.000000E+00  6.857143E-10
        41 -6.000000E-02  0.000000E+00  6.857143E-10
        42 -6.000000E-02  0.000000E+00  6.857143E-10
        43  0.000000E+00 -5.714286E-10  6.857143E-10
        44 -5.714286E-10 -5.714286E-10  6.857143E-10
        45 -3.000000E-02 -5.714286E-10  6.857143E-10
        46 -3.000000E-02 -5.714286E-10  6.857143E-10
        47 -6.000000E-02 -5.714286E-10  6.857143E-10
        48 -6.000000E-02 -5.714286E-10  6.857143E-10
        49  0.000000E+00 -3.000000E-02  6.857143E-10
        50 -5.714286E-10 -3.000000E-02  6.857143E-10
        51 -3.000000E-02 -3.000000E-02  6.857143E-10
        52 -3.000000E-02 -3.000000E-02  6.857143E-10
        53 -6.000000E-02 -3.000000E-02  6.857143E-10
        54 -6.000000E-02 -3.000000E-02  6.857143E-10
        55  0.000000E+00 -3.000000E-02  6.857143E-10
        56 -5.714286E-10 -3.000000E-02  6.857143E-10
        57 -3.000000E-02 -3.000000E-02  6.857143E-10
        58 -3.000000E-02 -3.000000E-02  6.857143E-10
        59 -6.000000E-02 -3.000000E-02  6.857143E-10
        60 -6.000000E-02 -3.000000E-02  6.857143E-10
        61  0.000000E+00 -6.000000E-02  6.857143E-10
        62 -5.714286E-10 -6.000000E-02  6.857143E-10
        63 -3.000000E-02 -6.000000E-02  6.857143E-10
        64 -3.000000E-02 -6.000000E-02  6.857143E-10
        65 -6.000000E-02 -6.000000E-02  6.857143E-10
        66 -6.000000E-02 -6.000000E-02  6.857143E-10
        67  0.000000E+00 -6.000000E-02  6.857143E-10
        68 -5.714286E-10 -6.000000E-02  6.857143E-10
        69 -3.000000E-02 -6.000000E-02  6.857143E-10
        70 -3.000000E-02 -6.000000E-02  6.857143E-10
        71 -6.000000E-02 -6.000000E-02  6.857143E-10
        72 -6.000000E-02 -6.000000E-02  6.857143E-10

 stresses (elem, integ.pnt.,sxx,syy,szz,sxy,sxz,syz) for set EALL and time  0.2000000E-02

         1   1 -3.428571E-07 -3.428571E-07 -2.316111E-52  7.645883E-24  4.587530E-24  1.730986E-35
         1   2 -3.428571E-07 -3.428571E-07 -5.293956E-23  3.670024E-23  2.242792E-23 -3.058353E-24
         1   3 -3.428571E-07 -3.428571E-07 -1.058791E-22  1.529177E-24  2.038902E-24  2.446682E-23
         1   4 -3.428571E-07 -3.428571E-07 -5.293956E-23  3.058353E-23  1.223341E-23  2.140847E-23
         1   5 -3.428571E-07 -3.428571E-07  5.293956E-23  4.077804E-24 -1.784039E-23 -2.446682E-23
         1   6 -3.428571E-07 -3.428571E-07  5.293956E-23  1.427231E-23  5.192958E-35 -1.223341E-23
         1   7 -3.428571E-07 -3.428571E-07  4.117530E-51  6.116706E-24 -1.019451E-23  6.923945E-35
         1   8 -3.428571E-07 -3.428571E-07 -5.293956E-23  2.446682E-23  8.155608E-24  1.223341E-23
         2   1 -3.428571E-07 -3.428571E-07 -5.138505E-16 -2.486611E-17  2.299204E-16  2.089707E-17
         2   2 -3.428571E-07 -3.428571E-07 -4.472012E-16 -5.907321E-17  1.615062E-16 -1.185116E-17
         2   3 -3.428571E-07 -3.428571E-07 -8.147847E-16 -9.280156E-17  1.057934E-15 -2.740431E-17
         2   4 -3.428571E-07 -3.428571E-07 -1.167310E-15 -9.280156E-17 -5.840072E-16  1.804751E-17
         2   5 -3.428571E-07 -3.428571E-07  5.175504E-17 -5.321072E-16  2.973414E-16  1.262903E-16
         2   6 -3.428571E-07 -3.428571E-07  2.826245E-16 -3.952788E-16  1.015691E-15 -7.412779E-17
         2   7 -3.428571E-07 -3.428571E-07 -7.109749E-16 -4.905626E-16 -1.369425E-16  7.798894E-17
         2   8 -3.428571E-07 -3.428571E-07 -8.992802E-16 -2.169058E-16 -1.369425E-16 -4.422913E-17
         3   1 -3.428571E-07 -3.428571E-07 -9.391912E-17 -1.087036E-15  1.245529E-15  3.004681E-17
         3   2 -3.428571E-07 -3.428571E-07  3.331412E-17  3.496624E-16 -9.437254E-16 -1.673631E-17
         3   3 -3.428571E-07 -3.428571E-07  1.069087E-15 -1.066296E-15 -5.074330E-17 -2.467795E-17
         3   4 -3.428571E-07 -3.428571E-07  7.536133E-16  2.833135E-17 -4.612285E-16 -2.219225E-17
         3   5 -3.428571E-07 -3.428571E-07 -6.193264E-16 -2.156416E-15 -3.579624E-16  1.668610E-16
         3   6 -3.428571E-07 -3.428571E-07 -3.886285E-16 -5.144751E-16 -2.211340E-16 -5.700481E-17
         3   7 -3.428571E-07 -3.428571E-07  9.541646E-16 -2.066700E-15 -7.366902E-16  1.121362E-16
         3   8 -3.428571E-07 -3.428571E-07  7.421558E-16  1.225548E-16  2.211086E-16 -6.246076E-17
         4   1 -3.428571E-07 -3.428571E-07  1.015004E-15 -2.546658E-17  3.510424E-18 -6.852786E-16
         4   2 -3.428571E-07 -3.428571E-07  1.063428E-15 -1.587043E-18  1.425572E-17  3.774148E-16
         4   3 -3.428571E-07 -3.428571E-07  1.043060E-15 -1.280879E-16 -6.702670E-18 -2.747934E-16
         4   4 -3.428571E-07 -3.428571E-07  1.107011E-15 -1.042083E-16 -3.007095E-17 -2.725201E-16
         4   5 -3.428571E-07 -3.428571E-07  8.323267E-16  4.017447E-16  2.355788E-18 -4.242034E-18
         4   6 -3.428571E-07 -3.428571E-07  2.137123E-16  3.778652E-16  1.310108E-17  2.436919E-16
         4   7 -3.428571E-07 -3.428571E-07  7.887440E-16 -5.560541E-16 -1.646424E-18 -4.242034E-18
         4   8 -3.428571E-07 -3.428571E-07  1.856568E-16 -5.799335E-16 -2.501469E-17 -2.010004E-16
         5   1 -3.428571E-07 -3.428571E-07 -1.268770E-15  3.420710E-16 -5.905789E-17 -8.093471E-16
         5   2 -3.428571E-07 -3.428571E-07 -3.325839E-16 -5.815207E-16  1.803918E-16 -7.410615E-16
         5   3 -3.428571E-07 -3.428571E-07 -1.902248E-15  5.473136E-16  2.144703E-16 -7.409329E-16
         5   4 -3.428571E-07 -3.428571E-07 -1.177665E-15 -2.052426E-16 -1.276007E-16 -6.042331E-16
         5   5 -3.428571E-07 -3.428571E-07  1.399653E-17  5.473136E-16 -3.349598E-17 -6.590946E-16
         5   6 -3.428571E-07 -3.428571E-07 -3.325839E-16  2.736568E-16 -1.019102E-16 -4.702077E-16
         5   7 -3.428571E-07 -3.428571E-07  3.554205E-16 -8.973202E-34  5.276963E-17  2.987042E-16
         5   8 -3.428571E-07 -3.428571E-07 -2.540737E-16 -1.368284E-16 -8.405877E-17 -3.675864E-16
         6   1 -3.428571E-07 -3.428571E-07 -9.502282E-16  2.736568E-16 -1.322637E-15  5.098461E-16
         6   2 -3.428571E-07 -3.428571E-07 -3.305890E-16  2.736568E-16 -1.801536E-15 -6.638736E-16
         6   3 -3.428571E-07 -3.428571E-07 -1.559829E-15  4.104852E-16 -5.807590E-16  8.519171E-16
         6   4 -3.428571E-07 -3.428571E-07 -1.121227E-15  3.420710E-16  1.198010E-15  4.307536E-16
         6   5 -3.428571E-07 -3.428571E-07  2.812274E-16  1.231456E-15  1.703572E-16 -2.949906E-16
         6   6 -3.428571E-07 -3.428571E-07  1.413973E-15 -6.841420E-16 -3.085422E-16 -6.927891E-16
         6   7 -3.428571E-07 -3.428571E-07  8.211196E-17  5.473136E-16  9.698072E-16  6.628082E-16
         6   8 -3.428571E-07 -3.428571E-07  2.641608E-16  2.736568E-16 -3.984768E-16  6.412878E-16
         7   1 -3.428571E-07 -3.428571E-07  9.373728E-16  1.086944E-15  1.378154E-17  1.345153E-15
         7   2 -3.428571E-07 -3.428571E-07 -2.161280E-16  1.065952E-15 -2.079703E-17  2.530878E-16
         7   3 -3.428571E-07 -3.428571E-07  7.478958E-16 -7.683447E-18 -2.736831E-17  5.241823E-16
         7   4 -3.428571E-07 -3.428571E-07 -8.553820E-16 -2.867502E-17  5.540451E-18 -3.626400E-16
         7   5 -3.428571E-07 -3.428571E-07 -2.419124E-15  2.689946E-17  8.601200E-17 -8.632707E-17
         7   6 -3.428571E-07 -3.428571E-07 -1.417577E-15  1.003902E-16  5.143342E-17 -3.320899E-16
         7   7 -3.428571E-07 -3.428571E-07 -2.466877E-15  2.689946E-17 -1.350487E-16 -6.336407E-16
         7   8 -3.428571E-07 -3.428571E-07 -1.915108E-15  1.003902E-16 -1.021399E-16  4.888805E-16
         8   1 -3.428571E-07 -3.428571E-07 -1.650306E-16  1.368284E-16  2.061671E-16 -8.718909E-16
         8   2 -3.428571E-07 -3.428571E-07 -3.181301E-16  3.762781E-16  4.456168E-16  2.622674E-16
         8   3 -3.428571E-07 -3.428571E-07 -7.180669E-16  1.368284E-16  4.509408E-16  1.043707E-15
         8   4 -3.428571E-07 -3.428571E-07 -5.553352E-16  6.318885E-36  4.509408E-16  4.675100E-16
         8   5 -3.428571E-07 -3.428571E-07 -2.422699E-15 -5.473136E-16 -6.623603E-16 -1.900380E-16
         8   6 -3.428571E-07 -3.428571E-07 -4.207514E-16  5.473136E-16  5.598878E-17 -3.662454E-16
         8   7 -3.428571E-07 -3.428571E-07 -2.360008E-15 -5.473136E-16  4.613021E-16  3.572756E-16
         8   8 -3.428571E-07 -3.428571E-07 -1.786791E-15  5.473136E-16 -2.912541E-16 -1.610028E-16
         9   1 -3.428571E-07 -3.428571E-07 -1.382733E-15 -5.980504E-36  2.551169E-16 -8.660054E-16
         9   2 -3.428571E-07 -3.428571E-07 -6.883924E-16  2.736568E-16 -4.290251E-16  4.427624E-16
         9   3 -3.428571E-07 -3.428571E-07 -1.166258E-15  1.518210E-35 -6.253697E-16 -1.002834E-15
         9   4 -3.428571E-07 -3.428571E-07 -1.494148E-15 -6.841420E-17  1.956007E-16  1.691056E-16
         9   5 -3.428571E-07 -3.428571E-07 -3.024673E-15 -2.189254E-15  6.763638E-17  3.425775E-16
         9   6 -3.428571E-07 -3.428571E-07 -1.919848E-15 -5.473136E-16  2.044648E-16  1.204600E-16
         9   7 -3.428571E-07 -3.428571E-07 -2.808198E-15 -2.189254E-15 -2.913095E-16 -2.047361E-16
         9   8 -3.428571E-07 -3.428571E-07 -2.930846E-15  1.972301E-36  1.191757E-16  3.941168E-16

 strains (elem, integ.pnt.,exx,eyy,ezz,exy,exz,eyz) forset EALL and time  0.2000000E-02

         1   1 -1.142857E-12 -1.142857E-12  9.795918E-13  4.733165E-29  2.839899E-29 -1.071563E-40
         1   2 -1.142857E-12 -1.142857E-12  9.795918E-13  2.271919E-28  1.388395E-28 -1.893266E-29
         1   3 -1.142857E-12 -1.142857E-12  9.795918E-13  9.466331E-30  1.262177E-29  1.514613E-28
         1   4 -1.142857E-12 -1.142857E-12  9.795918E-13  1.893266E-28  7.573065E-29  1.325286E-28