    1C
    1UUSER                                                              
    1UDATE              11.august.2016                                  
    1UTIME              13:49:48                                        
    1UHOST                                                              
    1UPGM               CalculiX                                        
    1UVERSION           Version 2.10                             
    1UCOMPILETIME       Sa 5. Mär 12:23:33 CET 2016                    
    1UDIR                                                               
    1UDBN                                                               
    1UMAT    1SI1                                                       
    1UMAT    2EL                                                        
    1UMAT    3SPRING                                                    
    2C                            24                                     1
 -1         1 0.00000E+00 0.00000E+00 0.00000E+00
 -1         2 5.00000E+02 0.00000E+00 0.00000E+00
 -1         3 5.10000E+02 0.00000E+00 0.00000E+00
 -1         4 1.01000E+03 0.00000E+00 0.00000E+00
 -1         5 1.02000E+03 0.00000E+00 0.00000E+00
 -1         6 1.52000E+03 0.00000E+00 0.00000E+00
 -1         7 0.00000E+00 5.00000E+02 0.00000E+00
 -1         8 5.00000E+02 5.00000E+02 0.00000E+00
 -1         9 5.10000E+02 5.00000E+02 0.00000E+00
 -1        10 1.01000E+03 5.00000E+02 0.00000E+00
 -1        11 1.02000E+03 5.00000E+02 0.00000E+00
 -1        12 1.52000E+03 5.00000E+02 0.00000E+00
 -1        13 0.00000E+00 0.00000E+00 7.00000E+02
 -1        14 5.00000E+02 0.00000E+00 7.00000E+02
 -1        15 5.10000E+02 0.00000E+00 7.00000E+02
 -1        16 1.01000E+03 0.00000E+00 7.00000E+02
 -1        17 1.02000E+03 0.00000E+00 7.00000E+02
 -1        18 1.52000E+03 0.00000E+00 7.00000E+02
 -1        19 0.00000E+00 5.00000E+02 7.00000E+02
 -1        20 5.00000E+02 5.00000E+02 7.00000E+02
 -1        21 5.10000E+02 5.00000E+02 7.00000E+02
 -1        22 1.01000E+03 5.00000E+02 7.00000E+02
 -1        23 1.02000E+03 5.00000E+02 7.00000E+02
 -1        24 1.52000E+03 5.00000E+02 7.00000E+02
 -3
    3C                            11                                     1
 -1         1    1    0    2
 -2         1         2         8         7        13        14        20        19
 -1         2    1    0    2
 -2         3         4        10         9        15        16        22        21
 -1         3    1    0    2
 -2         5         6        12        11        17        18        24        23
 -1         4   11    0    3
 -2         2         3
 -1         5   11    0    3
 -2         8         9
 -1         6   11    0    3
 -2        14        15
 -1         7   11    0    3
 -2        20        21
 -1         8   11    0    3
 -2         4         5
 -1         9   11    0    3
 -2        10        11
 -1        10   11    0    3
 -2        16        17
 -1        11   11    0    3
 -2        22        23
 -3
    1PSTEP                         1           1           1          
  100CL  101 1.00000E-03          24                     0    1           1
 -4  DISP        4    1
 -5  D1          1    2    1    0
 -5  D2          1    2    2    0
 -5  D3          1    2    3    0
 -5  ALL         1    2    0    0    1ALL
 -1         1 0.00000E+00 0.00000E+00 0.00000E+00
 -1         2-4.08163E-10 0.00000E+00 0.00000E+00
 -1         3-1.50000E-02 0.00000E+00 0.00000E+00
 -1         4-1.50000E-02 0.00000E+00 0.00000E+00
 -1         5-3.00000E-02 0.00000E+00 0.00000E+00
 -1         6-3.00000E-02 0.00000E+00 0.00000E+00
 -1         7 0.00000E+00 1.22449E-10 0.00000E+00
 -1         8-4.08163E-10 1.22449E-10 0.00000E+00
 -1         9-1.50000E-02 1.22449E-10 0.00000E+00
 -1        10-1.50000E-02 1.22449E-10 0.00000E+00
 -1        11-3.00000E-02 1.22449E-10 0.00000E+00
 -1        12-3.00000E-02 1.22449E-10 0.00000E+00
 -1        13 0.00000E+00 0.00000E+00 1.71429E-10
 -1        14-4.08163E-10 0.00000E+00 1.71429E-10
 -1        15-1.50000E-02 0.00000E+00 1.71429E-10
 -1        16-1.50000E-02 0.00000E+00 1.71429E-10
 -1        17-3.00000E-02 0.00000E+00 1.71429E-10
 -1        18-3.00000E-02 0.00000E+00 1.71429E-10
 -1        19 0.00000E+00 1.22449E-10 1.71429E-10
 -1        20-4.08163E-10 1.22449E-10 1.71429E-10
 -1        21-1.50000E-02 1.22449E-10 1.71429E-10
 -1        22-1.50000E-02 1.22449E-10 1.71429E-10
 -1        23-3.00000E-02 1.22449E-10 1.71429E-10
 -1        24-3.00000E-02 1.22449E-10 1.71429E-10
 -3
    1PSTEP                         2           1           1          
  100CL  101 1.00000E-03          24                     0    1           1
 -4  STRESS      6    1
 -5  SXX         1    4    1    1
 -5  SYY         1    4    2    2
 -5  SZZ         1    4    3    3
 -5  SXY         1    4    1    2
 -5  SYZ         1    4    2    3
 -5  SZX         1    4    3    1
 -1         1-1.71422E-07-1.14619E-23 1.74298E-23-4.49822E-25-3.32743E-24 2.08728E-24
 -1         2-8.57108E-08 6.10917E-23 2.70312E-23-4.45675E-23 1.44013E-24-5.14085E-24
 -1         3-8.57109E-08-3.23367E-16-4.82716E-16-3.74091E-16 2.11307E-22-1.66645E-16
 -1         4-8.57109E-08-5.07697E-16-3.64175E-16 5.27556E-16-1.36792E-22 2.98192E-16
 -1         5-8.57109E-08-3.15485E-16-3.76886E-16-1.11560E-16-1.41798E-22 4.45587E-16
 -1         6-1.71422E-07-7.52285E-16-7.64551E-16 8.96211E-16-3.31758E-22 2.11961E-16
 -1         7-1.71422E-07-1.13794E-22-4.21267E-23 4.18239E-23-8.90726E-24-8.47042E-25
 -1         8-8.57108E-08 9.92590E-24-4.97174E-23-2.45500E-23-1.53033E-23 5.29467E-23
 -1         9-8.57108E-08 5.86038E-16 5.78372E-16-3.45300E-16-5.91925E-17 3.21330E-16
 -1        10-8.57108E-08 1.79062E-16 1.77405E-16 3.06691E-17 5.02111E-17 8.97056E-18
 -1        11-8.57109E-08-2.12980E-17 4.35099E-17-8.96727E-17-7.58495E-17-6.97550E-16
 -1        12-1.71422E-07-4.48322E-16-5.87386E-16 5.39568E-16 1.00086E-16 3.73817E-16
 -1        13-1.71422E-07 1.98518E-23 2.66434E-23 4.75476E-24 3.25182E-23-1.10861E-23
 -1        14-8.57108E-08-2.25118E-23-1.53324E-23 1.12005E-23 1.39535E-24-8.36937E-24
 -1        15-8.57108E-08 9.33589E-17 9.97501E-17-5.73745E-17 1.06178E-16 8.35460E-17
 -1        16-8.57108E-08 4.45108E-16 4.48039E-16-3.74090E-16-1.01625E-16 2.32976E-16
 -1        17-8.57108E-08-1.32128E-16 1.88497E-17-4.35582E-16 8.83458E-17-3.99810E-17
 -1        18-1.71422E-07 8.48176E-16 5.55668E-16-4.96307E-17-8.87588E-17 4.70367E-17
 -1        19-1.71422E-07 7.63367E-23 1.11371E-22-2.61412E-24 2.69383E-23-3.94164E-23
 -1        20-8.57108E-08 5.73071E-24 1.44456E-23 1.16937E-23-1.53481E-23 2.11289E-23
 -1        21-8.57109E-08-3.44123E-16-1.86049E-16-1.62709E-17 4.69854E-17-1.31274E-16
 -1        22-8.57109E-08-2.15020E-16-3.57267E-16-1.92134E-16-5.14138E-17-3.59121E-16
 -1        23-8.57109E-08-9.92415E-16-7.15229E-16-1.81104E-16 1.24965E-17-1.94398E-16
 -1        24-1.71422E-07-1.15681E-15-1.57611E-15-4.74317E-16 1.13276E-17-6.57530E-16
 -3
    1PSTEP                         3           1           1          
  100CL  101 1.00000E-03          24                     0    1           1
 -4  TOSTRAIN    6    1
 -5  EXX         1    4    1    1
 -5  EYY         1    4    2    2
 -5  EZZ         1    4    3    3
 -5  EXY         1    4    1    2
 -5  EYZ         1    4    2    3
 -5  EZX         1    4    3    1
 -1         1-8.16294E-13 2.44888E-13 2.44888E-13-2.78461E-30-2.05984E-29 1.29213E-29
 -1         2-4.08147E-13 1.22444E-13 1.22444E-13-2.75894E-28 8.91511E-30-3.18243E-29
 -1         3-4.08147E-13 1.22444E-13 1.22444E-13-2.31580E-21 1.30809E-27-1.03161E-21
 -1         4-4.08147E-13 1.22444E-13 1.22444E-13 3.26582E-21-8.46808E-28 1.84595E-21
 -1         5-4.08147E-13 1.22444E-13 1.22444E-13-6.90608E-22-8.77796E-28 2.75840E-21
 -1         6-8.16294E-13 2.44888E-13 2.44888E-13 5.54797E-21-2.05374E-27 1.31214E-21
 -1         7-8.16294E-13 2.44888E-13 2.44888E-13 2.58910E-28-5.51402E-29-5.24360E-30
 -1         8-4.08147E-13 1.22444E-13 1.22444E-13-1.51976E-28-9.47349E-29 3.27765E-28
 -1         9-4.08147E-13 1.22444E-13 1.22444E-13-2.13757E-21-3.66430E-22 1.98919E-21
 -1        10-4.08147E-13 1.22444E-13 1.22444E-13 1.89856E-22 3.10831E-22 5.55320E-23
 -1        11-4.08147E-13 1.22444E-13 1.22444E-13-5.55116E-22-4.69545E-22-4.31817E-21
 -1        12-8.16294E-13 2.44888E-13 2.44888E-13 3.34018E-21 6.19580E-22 2.31410E-21
 -1        13-8.16294E-13 2.44888E-13 2.44888E-13 2.94342E-29 2.01303E-28-6.86285E-29
 -1        14-4.08147E-13 1.22444E-13 1.22444E-13 6.93363E-29 8.63787E-30-5.18104E-29
 -1        15-4.08147E-13 1.22444E-13 1.22444E-13-3.55176E-22 6.57293E-22 5.17190E-22
 -1        16-4.08147E-13 1.22444E-13 1.22444E-13-2.31580E-21-6.29107E-22 1.44223E-21
 -1        17-4.08147E-13 1.22444E-13 1.22444E-13-2.69646E-21 5.46903E-22-2.47501E-22
 -1        18-8.16294E-13 2.44888E-13 2.44888E-13-3.07238E-22-5.49459E-22 2.91180E-22
 -1        19-8.16294E-13 2.44888E-13 2.44888E-13-1.61826E-29 1.66761E-28-2.44006E-28
 -1        20-4.08147E-13 1.22444E-13 1.22444E-13 7.23899E-29-9.50122E-29 1.30798E-28
 -1        21-4.08147E-13 1.22444E-13 1.22444E-13-1.00724E-22 2.90862E-22-8.12647E-22
 -1        22-4.08147E-13 1.22444E-13 1.22444E-13-1.18940E-21-3.18276E-22-2.22313E-21
 -1        23-4.08147E-13 1.22444E-13 1.22444E-13-1.12112E-21 7.73591E-23-1.20342E-21
 -1        24-8.16294E-13 2.44888E-13 2.44888E-13-2.93625E-21 7.01232E-23-4.07042E-21
 -3
    1PSTEP                         4           2           1          
  100CL  102 2.00000E-03          24                     0    2           1
 -4  DISP        4    1
 -5  D1          1    2    1    0
 -5  D2          1    2    2    0
 -5  D3          1    2    3    0
 -5  ALL         1    2    0    0    1ALL
 -1         1 0.00000E+00 0.00000E+00 0.00000E+00
 -1         2-8.16327E-10 0.00000E+00 0.00000E+00
 -1         3-3.00000E-02 0.00000E+00 0.00000E+00
 -1         4-3.00000E-02 0.00000E+00 0.00000E+00
 -1         5-6.00000E-02 0.00000E+00 0.00000E+00
 -1         6-6.00000E-02 0.00000E+00 0.00000E+00
 -1         7 0.00000E+00 2.44898E-10 0.00000E+00
 -1         8-8.16327E-10 2.44898E-10 0.00000E+00
 -1         9-3.00000E-02 2.44898E-10 0.00000E+00
 -1        10-3.00000E-02 2.44898E-10 0.00000E+00
 -1        11-6.00000E-02 2.44898E-10 0.00000E+00
 -1        12-6.00000E-02 2.44898E-10 0.00000E+00
 -1        13 0.00000E+00 0.00000E+00 3.42857E-10
 -1        14-8.16327E-10 0.00000E+00 3.42857E-10
 -1        15-3.00000E-02 0.00000E+00 3.42857E-10
 -1        16-3.00000E-02 0.00000E+00 3.42857E-10
 -1        17-6.00000E-02 0.00000E+00 3.42857E-10
 -1        18-6.00000E-02 0.00000E+00 3.42857E-10
 -1        19 0.00000E+00 2.44898E-10 3.42857E-10
 -1        20-8.16327E-10 2.44898E-10 3.42857E-10
 -1        21-3.00000E-02 2.44898E-10 3.42857E-10
 -1        22-3.00000E-02 2.44898E-10 3.42857E-10
 -1        23-6.00000E-02 2.44898E-10 3.42857E-10
 -1        24-6.00000E-02 2.44898E-10 3.42857E-10
 -3
    1PSTEP                         5           2           1          
  100CL  102 2.00000E-03          24                     0    2           1
 -4  STRESS      6    1
 -5  SXX         1    4    1    1
 -5  SYY         1    4    2    2
 -5  SZZ         1    4    3    3
 -5  SXY         1    4    1    2
 -5  SYZ         1    4    2    3
 -5  SZX         1    4    3    1
 -1         1-3.42843E-07-7.10174E-23-3.54589E-24-8.91361E-24-9.46500E-25 5.42923E-24
 -1         2-1.71422E-07 7.26648E-24 1.27600E-23-5.31653E-24 1.73021E-25-4.78049E-23
 -1         3-1.71422E-07-7.40810E-16-9.07195E-16-2.88528E-16-2.05532E-23-4.05959E-16
 -1         4-1.71422E-07-8.89320E-16-7.04367E-16 6.02804E-16 2.10470E-22 1.88360E-16
 -1         5-1.71422E-07-4.28355E-16-7.09420E-16 1.66821E-18-1.49291E-21 7.37237E-16
 -1         6-3.42843E-07-1.69179E-15-1.49316E-15 1.62937E-15-1.44248E-21-2.02848E-15
 -1         7-3.42843E-07 7.71605E-23 5.90816E-23-9.25690E-24 2.45931E-23-6.11728E-24
 -1         8-1.71422E-07 2.71188E-23 8.37779E-23-5.48817E-24 5.70680E-24-1.08716E-23
 -1         9-1.71422E-07-5.98409E-16-7.54223E-16-8.95087E-17-4.49927E-17 6.11487E-17
 -1        10-1.71422E-07-7.80050E-16-6.28701E-16-5.29894E-16 5.00297E-17 1.27274E-16
 -1        11-1.71422E-07-3.67587E-16-4.40618E-16-7.75234E-17-1.88958E-16-9.11621E-16
 -1        12-3.42843E-07-1.82464E-15-1.54913E-15 8.90142E-16 2.94323E-16 1.38773E-15
 -1        13-3.42843E-07-1.45330E-23-6.16778E-23 1.02124E-23 8.19190E-25 3.65260E-23
 -1        14-1.71422E-07-1.87279E-23-1.63059E-23-1.25742E-23-6.35324E-26-2.77789E-23
 -1        15-1.71422E-07-1.15825E-16-1.56230E-16 4.56036E-16 7.39961E-18-1.42081E-16
 -1        16-1.71422E-07 2.01274E-16 2.46145E-16 6.69609E-17-2.35225E-17-1.78576E-16
 -1        17-1.71422E-07 3.27941E-16 5.75955E-16 9.70746E-16 1.45622E-16-6.58592E-16
 -1        18-3.42843E-07 3.11477E-15 2.48929E-15-1.11812E-15 5.38153E-17 1.27807E-15
 -1        19-3.42843E-07-5.42366E-23-1.57867E-22-3.12870E-24 1.80034E-23 3.24055E-23
 -1        20-1.71422E-07-2.40473E-23-2.46963E-23-1.92448E-23 6.58965E-24-8.32112E-24
 -1        21-1.71422E-07-8.20038E-16-8.49873E-16 4.31259E-16-3.75930E-17 1.25081E-16
 -1        22-1.71422E-07-5.36070E-16-5.24804E-16 3.99011E-16 2.65070E-17 3.60229E-16
 -1        23-1.71422E-07-8.42730E-16-3.86681E-16 1.17432E-15-4.33345E-17 4.17698E-16
 -1        24-3.42843E-07 5.19039E-16-2.95586E-17 4.85593E-16 3.48140E-16-1.23088E-15
 -3
    1PSTEP                         6           2           1          
  100CL  102 2.00000E-03          24                     0    2           1
 -4  TOSTRAIN    6    1
 -5  EXX         1    4    1    1
 -5  EYY         1    4    2    2
 -5  EZZ         1    4    3    3
 -5  EXY         1    4    1    2
 -5  EYZ         1    4    2    3
 -5  EZX         1    4    3    1
 -1         1-1.63259E-12 4.89776E-13 4.89776E-13-5.51795E-29-5.85928E-30 3.36095E-29
 -1         2-8.16294E-13 2.44888E-13 2.44888E-13-3.29118E-29 1.07108E-30-2.95935E-28
 -1         3-8.16294E-13 2.44888E-13 2.44888E-13-1.78613E-21-1.27234E-28-2.51308E-21
 -1         4-8.16294E-13 2.44888E-13 2.44888E-13 3.73164E-21 1.30291E-27 1.16604E-21
 -1         5-8.16294E-13 2.44888E-13 2.44888E-13 1.03270E-23-9.24184E-27 4.56385E-21
 -1         6-1.63259E-12 4.89776E-13 4.89776E-13 1.00866E-20-8.92965E-27-1.25573E-20
 -1         7-1.63259E-12 4.89776E-13 4.89776E-13-5.73046E-29 1.52243E-28-3.78689E-29
 -1         8-8.16294E-13 2.44888E-13 2.44888E-13-3.39744E-29 3.53278E-29-6.73007E-29
 -1         9-8.16294E-13 2.44888E-13 2.44888E-13-5.54102E-22-2.78526E-22 3.78539E-22
 -1        10-8.16294E-13 2.44888E-13 2.44888E-13-3.28029E-21 3.09707E-22 7.87885E-22
 -1        11-8.16294E-13 2.44888E-13 2.44888E-13-4.79907E-22-1.16974E-21-5.64337E-21
 -1        12-1.63259E-12 4.89776E-13 4.89776E-13 5.51040E-21 1.82200E-21 8.59071E-21
 -1        13-1.63259E-12 4.89776E-13 4.89776E-13 6.32197E-29 5.07117E-30 2.26113E-28
 -1        14-8.16294E-13 2.44888E-13 2.44888E-13-7.78405E-29-3.93296E-31-1.71965E-28
 -1        15-8.16294E-13 2.44888E-13 2.44888E-13 2.82308E-21 4.58071E-23-8.79548E-22
 -1        16-8.16294E-13 2.44888E-13 2.44888E-13 4.14520E-22-1.45616E-22-1.10547E-21
 -1        17-8.16294E-13 2.44888E-13 2.44888E-13 6.00938E-21 9.01472E-22-4.07700E-21
 -1        18-1.63259E-12 4.89776E-13 4.89776E-13-6.92168E-21 3.33142E-22 7.91185E-21
 -1        19-1.63259E-12 4.89776E-13 4.89776E-13-1.93682E-29 1.11450E-28 2.00605E-28
 -1        20-8.16294E-13 2.44888E-13 2.44888E-13-1.19134E-28 4.07931E-29-5.15117E-29
 -1        21-8.16294E-13 2.44888E-13 2.44888E-13 2.66970E-21-2.32719E-22 7.74310E-22
 -1        22-8.16294E-13 2.44888E-13 2.44888E-13 2.47007E-21 1.64091E-22 2.22999E-21
 -1        23-8.16294E-13 2.44888E-13 2.44888E-13 7.26958E-21-2.68261E-22 2.58575E-21
 -1        24-1.63259E-12 4.89776E-13 4.89776E-13 3.00605E-21 2.15515E-21-7.61973E-21
 -3
    1PSTEP                         7           3           1          
  100CL  103 3.50000E-03          24                     0    3           1
 -4  DISP        4    1
 -5  D1          1    2    1    0
 -5  D2          1    2    2    0
 -5  D3          1    2    3    0
 -5  ALL         1    2    0    0    1ALL
 -1         1 0.00000E+00 0.00000E+00 0.00000E+00
 -1         2-1.42857E-09 0.00000E+00 0.00000E+00
 -1         3-5.25000E-02 0.00000E+00 0.00000E+00
 -1         4-5.25000E-02 0.00000E+00 0.00000E+00
 -1         5-1.05000E-01 0.00000E+00 0.00000E+00
 -1         6-1.05000E-01 0.00000E+00 0.00000E+00
 -1         7 0.00000E+00 4.28571E-10 0.00000E+00
 -1         8-1.42857E-09 4.28571E-10 0.00000E+00
 -1         9-5.25000E-02 4.28571E-10 0.00000E+00
 -1        10-5.25000E-02 4.28571E-10 0.00000E+00
 -1        11-1.05000E-01 4.28571E-10 0.00000E+00
 -1        12-1.05000E-01 4.28571E-10 0.00000E+00
 -1        13 0.00000E+00 0.00000E+00 6.00000E-10
 -1        14-1.42857E-09 0.00000E+00 6.00000E-10
 -1        15-5.25000E-02 0.00000E+00 6.00000E-10
 -1        16-5.25000E-02 0.00000E+00 6.00000E-10
 -1        17-1.05000E-01 0.00000E+00 6.00000E-10
 -1        18-1.05000E-01 0.00000E+00 6.00000E-10
 -1        19 0.00000E+00 4.28571E-10 6.00000E-10
 -1        20-1.42857E-09 4.28571E-10 6.00000E-10
 -1        21-5.25000E-02 4.28571E-10 6.00000E-10
 -1        22-5.25000E-02 4.28571E-10 6.00000E-10
 -1        23-1.05000E-01 4.28571E-10 6.00000E-10
 -1        24-1.05000E-01 4.28571E-10 6.00000E-10
 -3
    1PSTEP                         8           3           1          
  100CL  103 3.50000E-03          24                     0    3           1
 -4  STRESS      6    1
 -5  SXX         1    4    1    1
 -5  SYY         1    4    2    2
 -5  SZZ         1    4    3    3
 -5  SXY         1    4    1    2
 -5  SYZ         1    4    2    3
 -5  SZX         1    4    3    1
 -1         1-5.99976E-07 5.81298E-23-6.71231E-23-1.35210E-23 4.62484E-24 3.71753E-24
 -1         2-2.99988E-07-1.08473E-22-1.67797E-23 2.83005E-23-2.27805E-24-3.62544E-23
 -1         3-2.99988E-07-2.85748E-16-4.05790E-16-1.70248E-16-6.76156E-22-8.12850E-16
 -1         4-2.99988E-07-3.80292E-16-4.37065E-16 2.88423E-16 1.86678E-22 1.73869E-15
 -1         5-2.99988E-07 2.78284E-15 2.83786E-15-9.70299E-16 6.30456E-22-2.99143E-15
 -1         6-5.99976E-07 6.07659E-15 6.37579E-15 5.85456E-15-1.67163E-21 2.00281E-15
 -1         7-5.99976E-07-5.81298E-23-9.16913E-23-7.00302E-23 1.24378E-23-9.37536E-24
 -1         8-2.99988E-07 1.08473E-22 1.08474E-22 4.52347E-24 2.07429E-23-4.20912E-23
 -1         9-2.99988E-07-2.50652E-16-4.97388E-16 2.77453E-16-2.09266E-17-1.95790E-16
 -1        10-2.99988E-07-4.52246E-17 1.71272E-16 1.25089E-16-5.30217E-17-5.64237E-16
 -1        11-2.99988E-07-1.89326E-15-1.50536E-15 1.11472E-15-1.94591E-17 6.57533E-16
 -1        12-5.99976E-07-4.46420E-15-5.08404E-15-2.79152E-15 2.40778E-16 2.94230E-15
 -1        13-5.99976E-07-5.81298E-23-5.81298E-23-1.56731E-23-1.85491E-23 2.35272E-23
 -1        14-2.99988E-07 1.08473E-22 4.58467E-23-4.99776E-24 7.54318E-24-2.41107E-23
 -1        15-2.99988E-07 1.16378E-15 1.10233E-15 4.79339E-16-8.86861E-17-1.15361E-16
 -1        16-2.99988E-07 9.11969E-16 1.00366E-15-4.93984E-16 1.91289E-16-8.42977E-16
 -1        17-2.99988E-07-2.23827E-15-2.12876E-15 1.67011E-16 2.33015E-16-8.40169E-16
 -1        18-5.99976E-07-2.59510E-15-2.97009E-15 3.93313E-15-6.43328E-16-4.63584E-16
 -1        19-5.99976E-07 5.81298E-23-1.25255E-22 2.39348E-23-1.07361E-23 3.78493E-23
 -1        20-2.99988E-07-1.08473E-22-1.25254E-22-1.90465E-24 3.05641E-23-2.68343E-23
 -1        21-2.99988E-07 5.83160E-16 3.95017E-16-1.47347E-15-1.09612E-16 6.80179E-17
 -1        22-2.99988E-07 6.31317E-16 9.96275E-16 3.19262E-16 1.38267E-16-2.02494E-16
 -1        23-2.99988E-07 2.93714E-15 3.37953E-15-2.11308E-15 2.13555E-16-1.74606E-15
 -1        24-5.99976E-07 6.56713E-15 5.27311E-15-1.35676E-15-4.02548E-16 2.03068E-15
 -3
    1PSTEP                         9           3           1          
  100CL  103 3.50000E-03          24                     0    3           1
 -4  TOSTRAIN    6    1
 -5  EXX         1    4    1    1
 -5  EYY         1    4    2    2
 -5  EZZ         1    4    3    3
 -5  EXY         1    4    1    2
 -5  EYZ         1    4    2    3
 -5  EZX         1    4    3    1
 -1         1-2.85703E-12 8.57108E-13 8.57108E-13-8.37013E-29 2.86300E-29 2.30133E-29
 -1         2-1.42851E-12 4.28554E-13 4.28554E-13 1.75193E-28-1.41022E-29-2.24432E-28
 -1         3-1.42851E-12 4.28554E-13 4.28554E-13-1.05391E-21-4.18573E-27-5.03193E-21
 -1         4-1.42851E-12 4.28554E-13 4.28554E-13 1.78548E-21 1.15563E-27 1.07633E-20
 -1         5-1.42851E-12 4.28554E-13 4.28554E-13-6.00662E-21 3.90282E-27-1.85184E-20
 -1         6-2.85703E-12 8.57108E-13 8.57108E-13 3.62425E-20-1.03482E-26 1.23983E-20
 -1         7-2.85703E-12 8.57108E-13 8.57108E-13-4.33520E-28 7.69957E-29-5.80379E-29
 -1         8-1.42851E-12 4.28554E-13 4.28554E-13 2.80024E-29 1.28408E-28-2.60565E-28
 -1         9-1.42851E-12 4.28554E-13 4.28554E-13 1.71757E-21-1.29546E-22-1.21204E-21
 -1        10-1.42851E-12 4.28554E-13 4.28554E-13 7.74360E-22-3.28230E-22-3.49290E-21
 -1        11-1.42851E-12 4.28554E-13 4.28554E-13 6.90068E-21-1.20461E-22 4.07044E-21
 -1        12-2.85703E-12 8.57108E-13 8.57108E-13-1.72808E-20 1.49053E-21 1.82142E-20
 -1        13-2.85703E-12 8.57108E-13 8.57108E-13-9.70241E-29-1.14828E-28 1.45645E-28
 -1        14-1.42851E-12 4.28554E-13 4.28554E-13-3.09385E-29 4.66959E-29-1.49257E-28
 -1        15-1.42851E-12 4.28554E-13 4.28554E-13 2.96734E-21-5.49009E-22-7.14139E-22
 -1        16-1.42851E-12 4.28554E-13 4.28554E-13-3.05800E-21 1.18417E-21-5.21843E-21
 -1        17-1.42851E-12 4.28554E-13 4.28554E-13 1.03388E-21 1.44247E-21-5.20105E-21
 -1        18-2.85703E-12 8.57108E-13 8.57108E-13 2.43479E-20-3.98251E-21-2.86980E-21
 -1        19-2.85703E-12 8.57108E-13 8.57108E-13 1.48168E-28-6.64619E-29 2.34305E-28
 -1        20-1.42851E-12 4.28554E-13 4.28554E-13-1.17907E-29 1.89206E-28-1.66117E-28
 -1        21-1.42851E-12 4.28554E-13 4.28554E-13-9.12147E-21-6.78551E-22 4.21063E-22
 -1        22-1.42851E-12 4.28554E-13 4.28554E-13 1.97638E-21 8.55936E-22-1.25353E-21
 -1        23-1.42851E-12 4.28554E-13 4.28554E-13-1.30810E-20 1.32201E-21-1.08089E-20
 -1        24-2.85703E-12 8.57108E-13 8.57108E-13-8.39898E-21-2.49197E-21 1.25709E-20
 -3
    1PSTEP                        10           4           1          
  100CL  104 5.75000E-03          24                     0    4           1
 -4  DISP        4    1
 -5  D1          1    2    1    0
 -5  D2          1    2    2    0
 -5  D3          1    2    3    0
 -5  ALL         1    2    0    0    1ALL
 -1         1 0.00000E+00 0.00000E+00 0.00000E+00
 -1         2-2.34694E-09 0.00000E+00 0.00000E+00
 -1         3-8.62500E-02 0.00000E+00 0.00000E+00
 -1         4-8.62500E-02 0.00000E+00 0.00000E+00
 -1         5-1.72500E-01 0.00000E+00 0.00000E+00
 -1         6-1.72500E-01 0.00000E+00 0.00000E+00
 -1         7 0.00000E+00 7.04082E-10 0.00000E+00
 -1         8-2.34694E-09 7.04082E-10 0.00000E+00
 -1         9-8.62500E-02 7.04082E-10 0.00000E+00
 -1        10-8.62500E-02 7.04082E-10 0.00000E+00
 -1        11-1.72500E-01 7.04082E-10 0.00000E+00
 -1        12-1.72500E-01 7.04082E-10 0.00000E+00
 -1        13 0.00000E+00 0.00000E+00 9.85714E-10
 -1        14-2.34694E-09 0.00000E+00 9.85714E-10
 -1        15-8.62500E-02 0.00000E+00 9.85714E-10
 -1        16-8.62500E-02 0.00000E+00 9.85714E-10
 -1        17-1.72500E-01 0.00000E+00 9.85714E-10
 -1        18-1.72500E-01 0.00000E+00 9.85714E-10
 -1        19 0.00000E+00 7.04082E-10 9.85714E-10
 -1        20-2.34694E-09 7.04082E-10 9.85714E-10
 -1        21-8.62500E-02 7.04082E-10 9.85714E-10
 -1        22-8.62500E-02 7.04082E-10 9.85714E-10
 -1        23-1.72500E-01 7.04082E-10 9.85714E-10
 -1        24-1.72500E-01 7.04082E-10 9.85714E-10
 -3
    1PSTEP                        11           4           1          
  100CL  104 5.75000E-03          24                     0    4           1
 -4  STRESS      6    1
 -5  SXX         1    4    1    1
 -5  SYY         1    4    2    2
 -5  SZZ         1    4    3    3
 -5  SXY         1    4    1    2
 -5  SYZ         1    4    2    3
 -5  SZX         1    4    3    1
 -1         1-9.85675E-07 9.87852E-23-6.26275E-23-2.79998E-24 1.39255E-23 4.09820E-24
 -1         2-4.92837E-07 6.61734E-23 2.71186E-22-4.94793E-23-5.05101E-24-1.65234E-22
 -1         3-4.92837E-07-5.21275E-16-8.86097E-16 1.70632E-15 5.95408E-23 3.61731E-16
 -1         4-4.92837E-07-7.14877E-16-4.87050E-16-1.76849E-16-2.50545E-23 1.17632E-15
 -1         5-4.92837E-07-3.68024E-16-1.92927E-15 2.63865E-15-6.90788E-21 3.64831E-15
 -1         6-9.85675E-07-1.09575E-14-8.93182E-15-5.03567E-15 6.79258E-21-4.36237E-15
 -1         7-9.85675E-07 2.15049E-22-5.03413E-23-4.63775E-23 6.66438E-23-1.09611E-24
 -1         8-4.92837E-07 1.24305E-22 2.26986E-22-7.12680E-23 1.31925E-24-3.63238E-23
 -1         9-4.92837E-07-2.97276E-15-3.24186E-15 1.55121E-15-5.67788E-17-1.71562E-15
 -1        10-4.92837E-07-3.24186E-15-3.01897E-15-2.01846E-16-8.65207E-18 3.79951E-17
 -1        11-4.92837E-07 5.65925E-15 3.87828E-15-7.92504E-16-1.19819E-15-6.89513E-16
 -1        12-9.85675E-07 2.60673E-15 6.20589E-15 7.24710E-15 2.01796E-15-9.81085E-16
 -1        13-9.85675E-07-3.01550E-22-6.92195E-22-8.34058E-24-2.91445E-23 1.21583E-22
 -1        14-4.92837E-07-2.13403E-22-9.39412E-23 1.25133E-22-3.75851E-24-1.06492E-22
 -1        15-4.92837E-07-4.78861E-16-6.84702E-16-3.70469E-16 6.70062E-17-2.29407E-16
 -1        16-4.92837E-07-4.36642E-16-1.84590E-16-2.76362E-16-3.45692E-18 1.21634E-15
 -1        17-4.92837E-07-4.70833E-17 1.74659E-15-4.21083E-15-1.53807E-16-1.25267E-15
 -1        18-9.85675E-07 1.13146E-14 7.68998E-15 1.23142E-15 1.10145E-15 6.10219E-15
 -1        19-9.85675E-07 1.32347E-22-1.45330E-22-1.13084E-22 5.69955E-23 1.28622E-22
 -1        20-4.92837E-07 3.54589E-24-8.38986E-24 7.27607E-23-1.86584E-24 2.85350E-23
 -1        21-4.92837E-07-1.08319E-15-1.19331E-15-5.33328E-16 1.02273E-17 1.84564E-15
 -1        22-4.92837E-07-1.11646E-15-8.69350E-16 4.63810E-17-1.21090E-17-2.13126E-16
 -1        23-4.92837E-07-8.18137E-15-6.60740E-15-1.54709E-15-1.35199E-15 1.55297E-15
 -1        24-9.85675E-07-3.44432E-15-5.49541E-15-2.73467E-15 3.11940E-15-6.09016E-15
 -3
    1PSTEP                        12           4           1          
  100CL  104 5.75000E-03          24                     0    4           1
 -4  TOSTRAIN    6    1
 -5  EXX         1    4    1    1
 -5  EYY         1    4    2    2
 -5  EZZ         1    4    3    3
 -5  EXY         1    4    1    2
 -5  EYZ         1    4    2    3
 -5  EZX         1    4    3    1
 -1         1-4.69369E-12 1.40811E-12 1.40811E-12-1.73332E-29 8.62052E-29 2.53698E-29
 -1         2-2.34684E-12 7.04053E-13 7.04053E-13-3.06300E-28-3.12682E-29-1.02288E-27
 -1         3-2.34684E-12 7.04053E-13 7.04053E-13 1.05629E-20 3.68586E-28 2.23929E-21
 -1         4-2.34684E-12 7.04053E-13 7.04053E-13-1.09478E-21-1.55100E-28 7.28200E-21
 -1         5-2.34684E-12 7.04053E-13 7.04053E-13 1.63345E-20-4.27631E-26 2.25848E-20
 -1         6-4.69369E-12 1.40811E-12 1.40811E-12-3.11732E-20 4.20493E-26-2.70052E-20
 -1         7-4.69369E-12 1.40811E-12 1.40811E-12-2.87099E-28 4.12557E-28-6.78546E-30
 -1         8-2.34684E-12 7.04053E-13 7.04053E-13-4.41183E-28 8.16679E-30-2.24862E-28
 -1         9-2.34684E-12 7.04053E-13 7.04053E-13 9.60270E-21-3.51488E-22-1.06205E-20
 -1        10-2.34684E-12 7.04053E-13 7.04053E-13-1.24952E-21-5.35604E-23 2.35208E-22
 -1        11-2.34684E-12 7.04053E-13 7.04053E-13-4.90598E-21-7.41739E-21-4.26841E-21
 -1        12-4.69369E-12 1.40811E-12 1.40811E-12 4.48630E-20 1.24921E-20-6.07338E-21
 -1        13-4.69369E-12 1.40811E-12 1.40811E-12-5.16322E-29-1.80418E-28 7.52655E-28
 -1        14-2.34684E-12 7.04053E-13 7.04053E-13 7.74630E-28-2.32670E-29-6.59235E-28
 -1        15-2.34684E-12 7.04053E-13 7.04053E-13-2.29338E-21 4.14800E-22-1.42014E-21
 -1        16-2.34684E-12 7.04053E-13 7.04053E-13-1.71081E-21-2.14000E-23 7.52975E-21
 -1        17-2.34684E-12 7.04053E-13 7.04053E-13-2.60670E-20-9.52136E-22-7.75463E-21
 -1        18-4.69369E-12 1.40811E-12 1.40811E-12 7.62307E-21 6.81848E-21 3.77755E-20
 -1        19-4.69369E-12 1.40811E-12 1.40811E-12-7.00046E-28 3.52830E-28 7.96229E-28
 -1        20-2.34684E-12 7.04053E-13 7.04053E-13 4.50423E-28-1.15504E-29 1.76646E-28
 -1        21-2.34684E-12 7.04053E-13 7.04053E-13-3.30156E-21 6.33118E-23 1.14254E-20
 -1        22-2.34684E-12 7.04053E-13 7.04053E-13 2.87120E-22-7.49602E-23-1.31935E-21
 -1        23-2.34684E-12 7.04053E-13 7.04053E-13-9.57722E-21-8.36948E-21 9.61364E-21
 -1        24-4.69369E-12 1.40811E-12 1.40811E-12-1.69289E-20 1.93105E-20-3.77010E-20
 -3
    1PSTEP                        13           5           1          
  100CL  105 9.12500E-03          24                     0    5           1
 -4  DISP        4    1
 -5  D1          1    2    1    0
 -5  D2          1    2    2    0
 -5  D3          1    2    3    0
 -5  ALL         1    2    0    0    1ALL
 -1         1 0.00000E+00 0.00000E+00 0.00000E+00
 -1         2-3.72449E-09 0.00000E+00 0.00000E+00
 -1         3-1.36875E-01 0.00000E+00 0.00000E+00
 -1         4-1.36875E-01 0.00000E+00 0.00000E+00
 -1         5-2.73750E-01 0.00000E+00 0.00000E+00
 -1         6-2.73750E-01 0.00000E+00 0.00000E+00
 -1         7 0.00000E+00 1.11735E-09 0.00000E+00
 -1         8-3.72449E-09 1.11735E-09 0.00000E+00
 -1         9-1.36875E-01 1.11735E-09 0.00000E+00
 -1        10-1.36875E-01 1.11735E-09 0.00000E+00
 -1        11-2.73750E-01 1.11735E-09 0.00000E+00
 -1        12-2.73750E-01 1.11735E-09 0.00000E+00
 -1        13 0.00000E+00 0.00000E+00 1.56429E-09
 -1        14-3.72449E-09 0.00000E+00 1.56429E-09
 -1        15-1.36875E-01 0.00000E+00 1.56429E-09
 -1        16-1.36875E-01 0.00000E+00 1.56429E-09
 -1        17-2.73750E-01 0.00000E+00 1.56429E-09
 -1        18-2.73750E-01 0.00000E+00 1.56429E-09
 -1        19 0.00000E+00 1.11735E-09 1.56429E-09
 -1        20-3.72449E-09 1.11735E-09 1.56429E-09
 -1        21-1.36875E-01 1.11735E-09 1.56429E-09