    1C
    1UUSER                                                              
    1UDATE              11.july.2016                                    
    1UTIME              14:24:17                                        
    1UHOST                                                              
    1UPGM               CalculiX                                        
    1UDIR                                                               
    1UDBN                                                               
    1UMAT    1EL                                                        
    2C                             8                                     1
 -1         1 0.00000E+00 0.00000E+00 0.00000E+00
 -1         2 4.70000E+02-1.71000E+02 0.00000E+00
 -1         3 1.71000E+02 4.70000E+02 0.00000E+00
 -1         4 6.41000E+02 2.99000E+02 0.00000E+00
 -1         5 0.00000E+00 0.00000E+00 7.00000E+02
 -1         6 4.70000E+02-1.71000E+02 7.00000E+02
 -1         7 1.71000E+02 4.70000E+02 7.00000E+02
 -1         8 6.41000E+02 2.99000E+02 7.00000E+02
 -3
    3C                             1                                     1
 -1         1    1    0    1
 -2         1         2         4         3         5         6         8         7
 -3
    1PSTEP                         1           1           1          
  100CL  101 5.00000E-02           8                     0    1           1
 -4  DISP        4    1
 -5  D1          1    2    1    0
 -5  D2          1    2    2    0
 -5  D3          1    2    3    0
 -5  ALL         1    2    0    0    1ALL
 -1         1 0.00000E+00 0.00000E+00 0.00000E+00
 -1         2 1.46600E+00 0.00000E+00 0.00000E+00
 -1         3 0.00000E+00-4.83763E-01 0.00000E+00
 -1         4 1.06436E+00-3.89520E-01 0.00000E+00
 -1         5 0.00000E+00 0.00000E+00-4.56420E-01
 -1         6 1.44033E+00 0.00000E+00-4.44275E-01
 -1         7 0.00000E+00-5.03675E-01-3.68819E-01
 -1         8 1.06525E+00-4.35131E-01-3.59945E-01
 -3
    1PSTEP                         2           1           1          
  100CL  101 5.00000E-02           8                     0    1           1
 -4  STRESS      6    1
 -5  SXX         1    4    1    1
 -5  SYY         1    4    2    2
 -5  SZZ         1    4    3    3
 -5  SXY         1    4    1    2
 -5  SYZ         1    4    2    3
 -5  SZX         1    4    3    1
 -1         1 5.93466E+02-1.41923E+00 3.98069E+01-1.08101E+02-1.79104E-04-2.12264E-05
 -1         2 5.39175E+02 1.76036E+01 3.29371E+01-1.64001E+02 5.78609E-03-2.97214E+00
 -1         3 3.85617E+02-9.60002E+01-2.41793E+01-7.12913E+01-2.28984E+00 1.91781E-03
 -1         4 3.30851E+02-7.76219E+01-3.23801E+01-1.27089E+02-5.24725E+00 1.11495E-01
 -1         5 5.75186E+02-1.77917E+01 2.94522E+01-1.07762E+02 1.25673E+01 6.69969E+00
 -1         6 5.20200E+02-1.02016E+01 1.89378E+01-1.61015E+02 1.20794E+01 3.52538E+00
 -1         7 3.83711E+02-1.01369E+02-2.63685E+01-7.63605E+01 1.04589E+01 6.19608E+00
 -1         8 3.28238E+02-9.44112E+01-3.82178E+01-1.29526E+02 7.00876E+00 6.10329E+00
 -3
    1PSTEP                         3           1           1          
  100CL  101 5.00000E-02           8                     0    1           1
 -4  TOSTRAIN    6    1
 -5  EXX         1    4    1    1
 -5  EYY         1    4    2    2
 -5  EZZ         1    4    3    3
 -5  EXY         1    4    1    2
 -5  EYZ         1    4    2    3
 -5  EZX         1    4    3    1
 -1         1 2.75823E-03-9.08069E-04-6.51793E-04-6.67645E-04-3.33235E-09-9.59193E-10
 -1         2 2.48292E-03-7.30100E-04-6.34455E-04-1.01361E-03 2.77422E-08-1.83807E-05
 -1         3 2.00173E-03-9.72671E-04-5.26724E-04-4.41248E-04-1.42099E-05 2.34763E-09
 -1         4 1.72664E-03-7.94920E-04-5.14052E-04-7.86955E-04-3.25553E-05 6.40681E-07
 -1         5 2.70988E-03-9.45446E-04-6.51793E-04-6.65610E-04 7.80920E-05 4.13238E-05
 -1         6 2.45279E-03-8.15829E-04-6.34455E-04-9.95338E-04 7.50529E-05 2.18279E-05
 -1         7 2.00342E-03-9.92477E-04-5.26724E-04-4.72462E-04 6.50124E-05 3.82622E-05
 -1         8 1.74652E-03-8.63047E-04-5.14052E-04-8.01968E-04 4.35993E-05 3.77852E-05
 -3
    1PSTEP                         4           2           1          
  100CL  102 1.00000E-01           8                     0    2           1
 -4  DISP        4    1
 -5  D1          1    2    1    0
 -5  D2          1    2    2    0
 -5  D3          1    2    3    0
 -5  ALL         1    2    0    0    1ALL
 -1         1 0.00000E+00 0.00000E+00 0.00000E+00
 -1         2 2.91555E+00 0.00000E+00 0.00000E+00
 -1         3 0.00000E+00-9.65141E-01 0.00000E+00
 -1         4 2.11871E+00-7.78745E-01 0.00000E+00
 -1         5 0.00000E+00 0.00000E+00-9.08974E-01
 -1         6 2.86486E+00 0.00000E+00-8.84962E-01
 -1         7 0.00000E+00-1.00489E+00-7.34591E-01
 -1         8 2.12043E+00-8.69550E-01-7.17133E-01
 -3
    1PSTEP                         5           2           1          
  100CL  102 1.00000E-01           8                     0    2           1
 -4  STRESS      6    1
 -5  SXX         1    4    1    1
 -5  SYY         1    4    2    2
 -5  SZZ         1    4    3    3
 -5  SXY         1    4    1    2
 -5  SYZ         1    4    2    3
 -5  SZX         1    4    3    1
 -1         1 1.18712E+03-3.05785E+00 7.90184E+01-2.16046E+02-4.18551E-04 9.50830E-05
 -1         2 1.07881E+03 3.46142E+01 6.52978E+01-3.27276E+02 2.29869E-02-5.88898E+00
 -1         3 7.71212E+02-1.90686E+02-4.78945E+01-1.42452E+02-4.55538E+00 7.78563E-03
 -1         4 6.62130E+02-1.54457E+02-6.43023E+01-2.53279E+02-1.04158E+01 2.34540E-01
 -1         5 1.15070E+03-3.55205E+01 5.85166E+01-2.15360E+02 2.49160E+01 1.33513E+01
 -1         6 1.04099E+03-2.05566E+01 3.75375E+01-3.21314E+02 2.39546E+01 7.01482E+00
 -1         7 7.67413E+02-2.01382E+02-5.22701E+01-1.52572E+02 2.07255E+01 1.23275E+01
 -1         8 6.56879E+02-1.87814E+02-7.59520E+01-2.58181E+02 1.38845E+01 1.21063E+01
 -3
    1PSTEP                         6           2           1          
  100CL  102 1.00000E-01           8                     0    2           1
 -4  TOSTRAIN    6    1
 -5  EXX         1    4    1    1
 -5  EYY         1    4    2    2
 -5  EZZ         1    4    3    3
 -5  EXY         1    4    1    2
 -5  EYZ         1    4    2    3
 -5  EZX         1    4    3    1
 -1         1 5.49296E-03-1.80997E-03-1.29765E-03-1.33126E-03-1.13774E-08-2.70238E-09
 -1         2 4.94532E-03-1.45622E-03-1.26339E-03-2.01951E-03 1.10694E-07-3.63830E-05
 -1         3 3.98851E-03-1.93809E-03-1.04882E-03-8.81502E-04-2.83376E-05 1.03719E-08
 -1         4 3.44172E-03-1.58520E-03-1.02390E-03-1.56873E-03-6.47649E-05 1.25633E-06
 -1         5 5.39725E-03-1.88451E-03-1.29765E-03-1.32725E-03 1.55406E-04 8.20544E-05
 -1         6 4.88569E-03-1.62695E-03-1.26339E-03-1.98343E-03 1.49379E-04 4.34403E-05
 -1         7 3.99184E-03-1.97772E-03-1.04882E-03-9.43493E-04 1.29356E-04 7.59399E-05
 -1         8 3.48101E-03-1.72089E-03-1.02390E-03-1.59879E-03 8.67901E-05 7.49553E-05
 -3
    1PSTEP                         7           3           1          
  100CL  103 1.50000E-01           8                     0    3           1
 -4  DISP        4    1
 -5  D1          1    2    1    0
 -5  D2          1    2    2    0
 -5  D3          1    2    3    0
 -5  ALL         1    2    0    0    1ALL
 -1         1 0.00000E+00 0.00000E+00 0.00000E+00
 -1         2 4.34905E+00 0.00000E+00 0.00000E+00
 -1         3 0.00000E+00-1.44418E+00 0.00000E+00
 -1         4 3.16326E+00-1.16763E+00 0.00000E+00
 -1         5 0.00000E+00 0.00000E+00-1.35774E+00
 -1         6 4.27394E+00 0.00000E+00-1.32213E+00
 -1         7 0.00000E+00-1.50369E+00-1.09737E+00
 -1         8 3.16575E+00-1.30323E+00-1.07161E+00
 -3
    1PSTEP                         8           3           1          
  100CL  103 1.50000E-01           8                     0    3           1
 -4  STRESS      6    1
 -5  SXX         1    4    1    1
 -5  SYY         1    4    2    2
 -5  SZZ         1    4    3    3
 -5  SXY         1    4    1    2
 -5  SYZ         1    4    2    3
 -5  SZX         1    4    3    1
 -1         1 1.78094E+03-4.90568E+00 1.17652E+02-3.23837E+02-6.98383E-04 3.54653E-04
 -1         2 1.61889E+03 5.10613E+01 9.71025E+01-4.89840E+02 5.09400E-02-8.75286E+00
 -1         3 1.15678E+03-2.84096E+02-7.11614E+01-2.13483E+02-6.79731E+00 1.75405E-02
 -1         4 9.93818E+02-2.30516E+02-9.57786E+01-3.78590E+02-1.55085E+01 3.68562E-01
 -1         5 1.72653E+03-5.31861E+01 8.72024E+01-3.22795E+02 3.70533E+01 1.99563E+01
 -1         6 1.56235E+03-3.10500E+01 5.58104E+01-4.80912E+02 3.56317E+01 1.04689E+01
 -1         7 1.15110E+03-3.00079E+02-7.77205E+01-2.28637E+02 3.08059E+01 1.83960E+01
 -1         8 9.85906E+02-2.80225E+02-1.13215E+02-3.85987E+02 2.06307E+01 1.80117E+01
 -3
    1PSTEP                         9           3           1          
  100CL  103 1.50000E-01           8                     0    3           1
 -4  TOSTRAIN    6    1
 -5  EXX         1    4    1    1
 -5  EYY         1    4    2    2
 -5  EZZ         1    4    3    3
 -5  EXY         1    4    1    2
 -5  EYZ         1    4    2    3
 -5  EZX         1    4    3    1
 -1         1 8.20470E-03-2.70583E-03-1.93769E-03-1.99090E-03-2.38554E-08-5.16318E-09
 -1         2 7.38762E-03-2.17839E-03-1.88692E-03-3.01784E-03 2.45748E-07-5.40228E-05
 -1         3 5.96058E-03-2.89643E-03-1.56638E-03-1.32072E-03-4.23851E-05 2.40826E-08
 -1         4 5.14540E-03-2.37090E-03-1.52963E-03-2.34540E-03-9.66414E-05 1.84703E-06
 -1         5 8.06258E-03-2.81732E-03-1.93769E-03-1.98498E-03 2.31967E-04 1.22210E-04
 -1         6 7.29908E-03-2.43342E-03-1.88692E-03-2.96440E-03 2.23000E-04 6.48393E-05
 -1         7 5.96550E-03-2.95588E-03-1.56638E-03-1.41307E-03 1.93054E-04 1.13050E-04
 -1         8 5.20363E-03-2.57361E-03-1.52963E-03-2.39054E-03 1.29583E-04 1.11527E-04
 -3
    1PSTEP                        10           4           1          
  100CL  104 2.00000E-01           8                     0    4           1
 -4  DISP        4    1
 -5  D1          1    2    1    0
 -5  D2          1    2    2    0
 -5  D3          1    2    3    0
 -5  ALL         1    2    0    0    1ALL
 -1         1 0.00000E+00 0.00000E+00 0.00000E+00
 -1         2 5.76686E+00 0.00000E+00 0.00000E+00
 -1         3 0.00000E+00-1.92092E+00 0.00000E+00
 -1         4 4.19820E+00-1.55619E+00 0.00000E+00
 -1         5 0.00000E+00 0.00000E+00-1.80280E+00
 -1         6 5.66794E+00 0.00000E+00-1.75585E+00
 -1         7 0.00000E+00-2.00012E+00-1.45721E+00
 -1         8 4.20142E+00-1.73620E+00-1.42342E+00
 -3
    1PSTEP                        11           4           1          
  100CL  104 2.00000E-01           8                     0    4           1
 -4  STRESS      6    1
 -5  SXX         1    4    1    1
 -5  SYY         1    4    2    2
 -5  SZZ         1    4    3    3
 -5  SXY         1    4    1    2
 -5  SYZ         1    4    2    3
 -5  SZX         1    4    3    1
 -1         1 2.37493E+03-6.95508E+00 1.55724E+02-4.31477E+02-1.00079E-03 7.62118E-04
 -1         2 2.15940E+03 6.69498E+01 1.28364E+02-6.51707E+02 8.90276E-02-1.15660E+01
 -1         3 1.54232E+03-3.76257E+02-9.39903E+01-2.84391E+02-9.01590E+00 3.11203E-02
 -1         4 1.32591E+03-3.05821E+02-1.26821E+02-5.03051E+02-2.05272E+01 5.12683E-01
 -1         5 2.30266E+03-7.07886E+01 1.15519E+02-4.30071E+02 4.89845E+01 2.65166E+01
 -1         6 2.08426E+03-4.16873E+01 7.37624E+01-6.39822E+02 4.71156E+01 1.38887E+01
 -1         7 1.53477E+03-3.97486E+02-1.02730E+02-3.04562E+02 4.07045E+01 2.44040E+01
 -1         8 1.31531E+03-3.71670E+02-1.50019E+02-5.12968E+02 2.72507E+01 2.38226E+01
 -3
    1PSTEP                        12           4           1          
  100CL  104 2.00000E-01           8                     0    4           1
 -4  TOSTRAIN    6    1
 -5  EXX         1    4    1    1
 -5  EYY         1    4    2    2
 -5  EZZ         1    4    3    3
 -5  EXY         1    4    1    2
 -5  EYZ         1    4    2    3
 -5  EZX         1    4    3    1
 -1         1 1.08939E-02-3.59577E-03-2.57204E-03-2.64663E-03-4.05047E-08-8.28107E-09
 -1         2 9.81023E-03-2.89675E-03-2.50513E-03-4.00875E-03 4.29997E-07-7.13144E-05
 -1         3 7.91826E-03-3.84782E-03-2.07949E-03-1.75893E-03-5.63522E-05 4.34880E-08
 -1         4 6.83790E-03-3.15213E-03-2.03129E-03-3.11708E-03-1.28192E-04 2.41082E-06
 -1         5 1.07063E-02-3.74399E-03-2.57204E-03-2.63886E-03 3.07788E-04 1.61809E-04
 -1         6 9.69336E-03-3.23538E-03-2.50513E-03-3.93838E-03 2.95928E-04 8.60299E-05
 -1         7 7.92470E-03-3.92709E-03-2.07949E-03-1.88121E-03 2.56118E-04 1.49614E-04
 -1         8 6.91461E-03-3.42133E-03-2.03129E-03-3.17734E-03 1.71985E-04 1.47520E-04
 -3
    1PSTEP                        13           5           1          
  100CL  105 2.50000E-01           8                     0    5           1
 -4  DISP        4    1
 -5  D1          1    2    1    0
 -5  D2          1    2    2    0
 -5  D3          1    2    3    0
 -5  ALL         1    2    0    0    1ALL
 -1         1 0.00000E+00 0.00000E+00 0.00000E+00
 -1         2 7.16936E+00 0.00000E+00 0.00000E+00
 -1         3 0.00000E+00-2.39541E+00 0.00000E+00
 -1         4 5.22375E+00-1.94442E+00 0.00000E+00
 -1         5 0.00000E+00 0.00000E+00-2.24422E+00
 -1         6 7.04718E+00 0.00000E+00-2.18617E+00
 -1         7 0.00000E+00-2.49423E+00-1.81417E+00
 -1         8 5.22762E+00-2.16845E+00-1.77260E+00
 -3
    1PSTEP                        14           5           1          
  100CL  105 2.50000E-01           8                     0    5           1
 -4  STRESS      6    1
 -5  SXX         1    4    1    1
 -5  SYY         1    4    2    2
 -5  SZZ         1    4    3    3
 -5  SXY         1    4    1    2
 -5  SYZ         1    4    2    3
 -5  SZX         1    4    3    1
 -1         1 2.96907E+03-9.19832E+00 1.93251E+02-5.38967E+02-1.30983E-03 1.32120E-03
 -1         2 2.70031E+03 8.22905E+01 1.59097E+02-8.12890E+02 1.36673E-01-1.43304E+01
 -1         3 1.92785E+03-4.67199E+02-1.16392E+02-3.55182E+02-1.12115E+01 4.84643E-02
 -1         4 1.65839E+03-3.80390E+02-1.57441E+02-6.26686E+02-2.54737E+01 6.66160E-01
 -1         5 2.87908E+03-8.83280E+01 1.43476E+02-5.37190E+02 6.07152E+01 3.30338E+01
 -1         6 2.60671E+03-5.24687E+01 9.14003E+01-7.98060E+02 5.84113E+01 1.72751E+01
 -1         7 1.91843E+03-4.93631E+02-1.27310E+02-3.80354E+02 5.04262E+01 3.03535E+01
 -1         8 1.64508E+03-4.62171E+02-1.86376E+02-6.39150E+02 3.37474E+01 2.95420E+01
 -3
    1PSTEP                        15           5           1          
  100CL  105 2.50000E-01           8                     0    5           1
 -4  TOSTRAIN    6    1
 -5  EXX         1    4    1    1
 -5  EYY         1    4    2    2
 -5  EZZ         1    4    3    3
 -5  EXY         1    4    1    2
 -5  EYZ         1    4    2    3
 -5  EZX         1    4    3    1
 -1         1 1.35611E-02-4.47990E-03-3.20080E-03-3.29852E-03-6.10809E-08-1.20006E-08
 -1         2 1.22135E-02-3.61140E-03-3.11813E-03-4.99239E-03 6.60726E-07-8.82718E-05
 -1         3 9.86181E-03-4.79240E-03-2.58822E-03-2.19611E-03-7.02391E-05 6.85945E-08
 -1         4 8.51940E-03-3.92902E-03-2.52896E-03-3.88388E-03-1.59423E-04 2.94639E-06
 -1         5 1.33288E-02-4.66465E-03-3.20080E-03-3.28895E-03 3.82884E-04 2.00870E-04
 -1         6 1.20689E-02-4.03293E-03-3.11813E-03-4.90551E-03 3.68177E-04 1.07016E-04
 -1         7 9.86970E-03-4.89149E-03-2.58822E-03-2.34794E-03 3.18561E-04 1.85649E-04
 -1         8 8.61416E-03-4.26416E-03-2.52896E-03-3.95927E-03 2.14006E-04 1.82953E-04
 -3
    1PSTEP                        16           6           1          
  100CL  106 3.00000E-01           8                     0    6           1
 -4  DISP        4    1
 -5  D1          1    2    1    0
 -5  D2          1    2    2    0
 -5  D3          1    2    3    0
 -5  ALL         1    2    0    0    1ALL
 -1         1 0.00000E+00 0.00000E+00 0.00000E+00
 -1         2 8.55689E+00 0.00000E+00 0.00000E+00
 -1         3 0.00000E+00-2.86770E+00 0.00000E+00
 -1         4 6.24008E+00-2.33233E+00 0.00000E+00
 -1         5 0.00000E+00 0.00000E+00-2.68206E+00
 -1         6 8.41200E+00 0.00000E+00-2.61315E+00
 -1         7 0.00000E+00-2.98606E+00-2.16830E+00
 -1         8 6.24455E+00-2.60001E+00-2.11920E+00
 -3
    1PSTEP                        17           6           1          
  100CL  106 3.00000E-01           8                     0    6           1
 -4  STRESS      6    1
 -5  SXX         1    4    1    1
 -5  SYY         1    4    2    2
 -5  SZZ         1    4    3    3
 -5  SXY         1    4    1    2
 -5  SYZ         1    4    2    3
 -5  SZX         1    4    3    1
 -1         1 3.56336E+03-1.16280E+01 2.30247E+02-6.46310E+02-1.61129E-03 2.03477E-03
 -1         2 3.24163E+03 9.70934E+01 1.89315E+02-9.73403E+02 1.93337E-01-1.70482E+01
 -1         3 2.31336E+03-5.56948E+02-1.38378E+02-4.25863E+02-1.33845E+01 6.95128E-02
 -1         4 1.99124E+03-4.54242E+02-1.87650E+02-7.49521E+02-3.03501E+01 8.28291E-01
 -1         5 3.45577E+03-1.05804E+02 1.71083E+02-6.44154E+02 7.22506E+01 3.95094E+01
 -1         6 3.12967E+03-6.33943E+01 1.08731E+02-9.55638E+02 6.95236E+01 2.06290E+01
 -1         7 2.30209E+03-5.88543E+02-1.51470E+02-4.56019E+02 5.99754E+01 3.62466E+01
 -1         8 1.97522E+03-5.51751E+02-2.22298E+02-7.64555E+02 4.01237E+01 3.51725E+01
 -3
    1PSTEP                        18           6           1          
  100CL  106 3.00000E-01           8                     0    6           1
 -4  TOSTRAIN    6    1
 -5  EXX         1    4    1    1
 -5  EYY         1    4    2    2
 -5  EZZ         1    4    3    3
 -5  EXY         1    4    1    2
 -5  EYZ         1    4    2    3
 -5  EZX         1    4    3    1
 -1         1 1.62066E-02-5.35835E-03-3.82409E-03-3.94661E-03-8.53555E-08-1.62711E-08
 -1         2 1.45979E-02-4.32244E-03-3.72601E-03-5.96889E-03 9.35393E-07-1.04908E-04
 -1         3 1.17915E-02-5.73030E-03-3.09267E-03-2.63228E-03-8.40464E-05 9.94070E-08
 -1         4 1.01901E-02-4.70164E-03-3.02270E-03-4.64591E-03-1.90343E-04 3.45257E-06
 -1         5 1.59306E-02-5.57940E-03-3.82409E-03-3.93530E-03 4.57273E-04 2.39409E-04
 -1         6 1.44261E-02-4.82620E-03-3.72601E-03-5.86591E-03 4.39761E-04 1.27802E-04
 -1         7 1.18008E-02-5.84920E-03-3.09267E-03-2.81325E-03 3.80399E-04 2.21175E-04
 -1         8 1.03025E-02-5.10222E-03-3.02270E-03-4.73644E-03 2.55651E-04 2.17841E-04
 -3
    1PSTEP                        19           7           1          
  100CL  107 3.50000E-01           8                     0    7           1
 -4  DISP        4    1
 -5  D1          1    2    1    0
 -5  D2          1    2    2    0
 -5  D3          1    2    3    0
 -5  ALL         1    2    0    0    1ALL
 -1         1 0.00000E+00 0.00000E+00 0.00000E+00
 -1         2 9.92978E+00 0.00000E+00 0.00000E+00
 -1         3 0.00000E+00-3.33781E+00 0.00000E+00
 -1         4 7.24738E+00-2.71991E+00 0.00000E+00
 -1         5 0.00000E+00 0.00000E+00-3.11641E+00
 -1         6 9.76271E+00 0.00000E+00-3.03686E+00
 -1         7 0.00000E+00-3.47564E+00-2.51965E+00
 -1         8 7.25239E+00-3.03088E+00-2.46325E+00
 -3
    1PSTEP                        20           7           1          
  100CL  107 3.50000E-01           8                     0    7           1
 -4  STRESS      6    1
 -5  SXX         1    4    1    1
 -5  SYY         1    4    2    2
 -5  SZZ         1    4    3    3
 -5  SXY         1    4    1    2
 -5  SYZ         1    4    2    3
 -5  SZX         1    4    3    1
 -1         1 4.15779E+03-1.42371E+01 2.66729E+02-7.53508E+02-1.89253E-03 2.90500E-03
 -1         2 3.78331E+03 1.11369E+02 2.19030E+02-1.13326E+03 2.58518E-01-1.97212E+01
 -1         3 2.69886E+03-6.45532E+02-1.59957E+02-4.96438E+02-1.55353E+01 9.42075E-02
 -1         4 2.32447E+03-5.27394E+02-2.17459E+02-8.71577E+02-3.51580E+01 9.98411E-01
 -1         5 4.03273E+03-1.23218E+02 1.98346E+02-7.50966E+02 8.35958E+01 4.59451E+01
 -1         6 3.65312E+03-7.44641E+01 1.25760E+02-1.11257E+03 8.04569E+01 2.39514E+01
 -1         7 2.68574E+03-6.82247E+02-1.75222E+02-5.31563E+02 6.93565E+01 4.20852E+01
 -1         8 2.30570E+03-6.40429E+02-2.57794E+02-8.89204E+02 4.63825E+01 4.07169E+01
 -3
    1PSTEP                        21           7           1          
  100CL  107 3.50000E-01           8                     0    7           1
 -4  TOSTRAIN    6    1
 -5  EXX         1    4    1    1
 -5  EYY         1    4    2    2
 -5  EZZ         1    4    3    3
 -5  EXY         1    4    1    2
 -5  EYZ         1    4    2    3
 -5  EZX         1    4    3    1
 -1         1 1.88309E-02-6.23123E-03-4.44201E-03-4.59098E-03-1.13115E-07-2.10461E-08
 -1         2 1.69638E-02-5.02995E-03-4.32886E-03-6.93838E-03 1.25162E-06-1.21236E-04
 -1         3 1.37076E-02-6.66166E-03-3.59291E-03-3.06743E-03-9.77742E-05 1.35929E-07
 -1         4 1.18502E-02-5.47010E-03-3.51256E-03-5.40325E-03-2.20959E-04 3.92826E-06
 -1         5 1.85120E-02-6.48838E-03-4.44201E-03-4.57797E-03 5.30966E-04 2.77443E-04
 -1         6 1.67652E-02-5.61528E-03-4.32886E-03-6.81968E-03 5.10694E-04 1.48392E-04
 -1         7 1.37182E-02-6.80035E-03-3.59291E-03-3.27717E-03 4.41643E-04 2.56207E-04
 -1         8 1.19797E-02-5.93559E-03-3.51256E-03-5.50894E-03 2.96929E-04 2.52202E-04
 -3
    1PSTEP                        22           8           1          
  100CL  108 4.00000E-01           8                     0    8           1
 -4  DISP        4    1
 -5  D1          1    2    1    0
 -5  D2          1    2    2    0
 -5  D3          1    2    3    0
 -5  ALL         1    2    0    0    1ALL
 -1         1 0.00000E+00 0.00000E+00 0.00000E+00
 -1         2 1.12884E+01 0.00000E+00 0.00000E+00
 -1         3 0.00000E+00-3.80580E+00 0.00000E+00
 -1         4 8.24582E+00-3.10716E+00 0.00000E+00
 -1         5 0.00000E+00 0.00000E+00-3.54731E+00
 -1         6 1.10996E+01 0.00000E+00-3.45735E+00
 -1         7 0.00000E+00-3.96302E+00-2.86826E+00
 -1         8 8.25131E+00-3.46107E+00-2.80479E+00
 -3
    1PSTEP                        23           8           1          
  100CL  108 4.00000E-01           8                     0    8           1
 -4  STRESS      6    1
 -5  SXX         1    4    1    1
 -5  SYY         1    4    2    2
 -5  SZZ         1    4    3    3
 -5  SXY         1    4    1    2
 -5  SYZ         1    4    2    3
 -5  SZX         1    4    3    1
 -1         1 4.75235E+03-1.70189E+01 3.02709E+02-8.60563E+02-2.14228E-03 3.93335E-03
 -1         2 4.32536E+03 1.25126E+02 2.48255E+02-1.29247E+03 3.31745E-01-2.23512E+01
 -1         3 3.08436E+03-7.32976E+02-1.81141E+02-5.66914E+02-1.76642E+01 1.22491E-01
 -1         4 2.65806E+03-5.99861E+02-2.46877E+02-9.92878E+02-3.98993E+01 1.17589E+00
 -1         5 4.60995E+03-1.40569E+02 2.25276E+02-8.57629E+02 9.47557E+01 5.23423E+01
 -1         6 4.17705E+03-8.56782E+01 1.42495E+02-1.26887E+03 9.12158E+01 2.72429E+01
 -1         7 3.06939E+03-7.74769E+02-1.98575E+02-6.06992E+02 7.85735E+01 4.78711E+01
 -1         8 2.63652E+03-7.28227E+02-2.92876E+02-1.01312E+03 5.25266E+01 4.61777E+01
 -3
    1PSTEP                        24           8           1          
  100CL  108 4.00000E-01           8                     0    8           1
 -4  TOSTRAIN    6    1
 -5  EXX         1    4    1    1
 -5  EYY         1    4    2    2
 -5  EZZ         1    4    3    3
 -5  EXY         1    4    1    2
 -5  EYZ         1    4    2    3
 -5  EZX         1    4    3    1
 -1         1 2.14345E-02-7.09863E-03-5.05465E-03-5.23167E-03-1.44159E-07-2.62833E-08
 -1         2 1.93115E-02-5.73404E-03-4.92676E-03-7.90100E-03 1.60718E-06-1.37268E-04
 -1         3 1.56103E-02-7.58659E-03-4.08901E-03-3.50158E-03-1.11423E-04 1.78161E-07
 -1         4 1.34998E-02-6.23449E-03-3.99862E-03-6.15600E-03-2.51278E-04 4.37249E-06
 -1         5 2.10733E-02-7.39167E-03-5.05465E-03-5.21701E-03 6.03980E-04 3.14986E-04
 -1         6 1.90866E-02-6.40027E-03-4.92676E-03-7.76695E-03 5.80988E-04 1.68789E-04
 -1         7 1.56221E-02-7.74506E-03-4.08901E-03-3.73971E-03 5.02308E-04 2.90763E-04
 -1         8 1.36461E-02-6.76439E-03-3.99862E-03-6.27686E-03 3.37848E-04 2.86050E-04
 -3
    1PSTEP                        25           9           1          
  100CL  109 4.50000E-01           8                     0    9           1
 -4  DISP        4    1
 -5  D1          1    2    1    0
 -5  D2          1    2    2    0
 -5  D3          1    2    3    0
 -5  ALL         1    2    0    0    1ALL
 -1         1 0.00000E+00 0.00000E+00 0.00000E+00
 -1         2 1.26330E+01 0.00000E+00 0.00000E+00
 -1         3 0.00000E+00-4.27171E+00 0.00000E+00
 -1         4 9.23559E+00-3.49408E+00 0.00000E+00
 -1         5 0.00000E+00 0.00000E+00-3.97484E+00
 -1         6 1.24230E+01 0.00000E+00-3.87467E+00
 -1         7 0.00000E+00-4.44824E+00-3.21420E+00
 -1         8 9.24149E+00-3.89058E+00-3.14386E+00
 -3
    1PSTEP                        26           9           1          
  100CL  109 4.50000E-01           8                     0    9           1
 -4  STRESS      6    1
 -5  SXX         1    4    1    1
 -5  SYY         1    4    2    2
 -5  SZZ         1    4    3    3
 -5  SXY         1    4    1    2
 -5  SYZ         1    4    2    3
 -5  SZX         1    4    3    1
 -1         1 5.34703E+03-1.99671E+01 3.38202E+02-9.67477E+02-2.35057E-03 5.12074E-03
 -1         2 4.86776E+03 1.38375E+02 2.77003E+02-1.45104E+03 4.12577E-01-2.49399E+01
 -1         3 3.46984E+03-8.19306E+02-2.01937E+02-6.37294E+02-1.97715E+01 1.54307E-01
 -1         4 2.99200E+03-6.71660E+02-2.75915E+02-1.11345E+03-4.45756E+01 1.36015E+00
 -1         5 5.18740E+03-1.57857E+02 2.51879E+02-9.64144E+02 1.05735E+02 5.87024E+01
 -1         6 4.70144E+03-9.70365E+01 1.58941E+02-1.42454E+03 1.01804E+02 3.05046E+01
 -1         7 3.45303E+03-8.66135E+02-2.21538E+02-6.82311E+02 8.76306E+01 5.36062E+01
 -1         8 2.96767E+03-8.15162E+02-3.27554E+02-1.13632E+03 5.85585E+01 5.15574E+01
 -3
    1PSTEP                        27           9           1          
  100CL  109 4.50000E-01           8                     0    9           1
 -4  TOSTRAIN    6    1
 -5  EXX         1    4    1    1
 -5  EYY         1    4    2    2
 -5  EZZ         1    4    3    3
 -5  EXY         1    4    1    2
 -5  EYZ         1    4    2    3
 -5  EZX         1    4    3    1
 -1         1 2.40177E-02-7.96068E-03-5.66213E-03-5.86874E-03-1.78300E-07-3.19439E-08
 -1         2 2.16413E-02-6.43478E-03-5.51981E-03-8.85686E-03 1.99998E-06-1.53015E-04
 -1         3 1.74999E-02-8.50522E-03-4.58105E-03-3.93471E-03-1.24994E-04 2.26106E-07
 -1         4 1.51391E-02-6.99490E-03-4.48092E-03-6.90426E-03-2.81307E-04 4.78434E-06
 -1         5 2.36151E-02-8.28939E-03-5.66213E-03-5.85247E-03 6.76328E-04 3.52055E-04
 -1         6 2.13906E-02-7.18128E-03-5.51981E-03-8.70783E-03 6.50655E-04 1.88997E-04
 -1         7 1.75129E-02-8.68343E-03-4.58105E-03-4.20087E-03 5.62404E-04 3.24858E-04
 -1         8 1.53018E-02-7.58870E-03-4.48092E-03-7.04028E-03 3.78413E-04 3.19402E-04
 -3
    1PSTEP                        28          10           1          
  100CL  110 5.00000E-01           8                     0   10           1
 -4  DISP        4    1
 -5  D1          1    2    1    0
 -5  D2          1    2    2    0
 -5  D3          1    2    3    0
 -5  ALL         1    2    0    0    1ALL
 -1         1 0.00000E+00 0.00000E+00 0.00000E+00
 -1         2 1.39639E+01 0.00000E+00 0.00000E+00
 -1         3 0.00000E+00-4.73556E+00 0.00000E+00
 -1         4 1.02168E+01-3.88068E+00 0.00000E+00
 -1         5 0.00000E+00 0.00000E+00-4.39905E+00
 -1         6 1.37332E+01 0.00000E+00-4.28887E+00
 -1         7 0.00000E+00-4.93134E+00-3.55749E+00
 -1         8 1.02231E+01-4.31944E+00-3.48050E+00
 -3
    1PSTEP                        29          10           1          
  100CL  110 5.00000E-01           8                     0   10           1
 -4  STRESS      6    1
 -5  SXX         1    4    1    1
 -5  SYY         1    4    2    2
 -5  SZZ         1    4    3    3
 -5  SXY         1    4    1    2
 -5  SYZ         1    4    2    3
 -5  SZX         1    4    3    1
 -1         1 5.94182E+03-2.30756E+01 3.73221E+02-1.07425E+03-2.50859E-03 6.46751E-03
 -1         2 5.41050E+03 1.51124E+02 3.05285E+02-1.60900E+03 5.00604E-01-2.74890E+01
 -1         3 3.85533E+03-9.04544E+02-2.22355E+02-7.07586E+02-2.18576E+01 1.89600E-01
 -1         4 3.32628E+03-7.42805E+02-3.04582E+02-1.23330E+03-4.91885E+01 1.55062E+00
 -1         5 5.76509E+03-1.75083E+02 2.78164E+02-1.07051E+03 1.16538E+02 6.50268E+01
 -1         6 5.22628E+03-1.08539E+02 1.75105E+02-1.57961E+03 1.12227E+02 3.37372E+01
 -1         7 3.83668E+03-9.56367E+02-2.44121E+02-7.57525E+02 9.65316E+01 5.92921E+01
 -1         8 3.29914E+03-9.01255E+02-3.61837E+02-1.25883E+03 6.44807E+01 5.68584E+01
 -3
    1PSTEP                        30          10           1          
  100CL  110 5.00000E-01           8                     0   10           1
 -4  TOSTRAIN    6    1
 -5  EXX         1    4    1    1
 -5  EYY         1    4    2    2
 -5  EZZ         1    4    3    3
 -5  EXY         1    4    1    2
 -5  EYZ         1    4    2    3
 -5  EZX         1    4    3    1
 -1         1 2.65809E-02-8.81746E-03-6.26452E-03-6.50225E-03-2.15363E-07-3.79927E-08
 -1         2 2.39537E-02-7.13227E-03-6.10807E-03-9.80610E-03 2.42807E-06-1.68488E-04
 -1         3 1.93766E-02-9.41766E-03-5.06910E-03-4.36684E-03-1.38486E-04 2.79761E-07
 -1         4 1.67684E-02-7.75142E-03-4.95953E-03-7.64810E-03-3.11051E-04 5.16300E-06
 -1         5 2.61375E-02-9.18164E-03-6.26452E-03-6.48440E-03 7.48021E-04 3.88662E-04
 -1         6 2.36776E-02-7.95840E-03-6.10807E-03-9.64242E-03 7.19709E-04 2.09020E-04
 -1         7 1.93906E-02-9.61559E-03-5.06910E-03-4.66068E-03 6.21943E-04 3.58506E-04
 -1         8 1.69470E-02-8.40863E-03-4.95953E-03-7.79929E-03 4.18631E-04 3.52272E-04
 -3
    1PSTEP                        31          11           1          
  100CL  111 5.50000E-01           8                     0   11           1
 -4  DISP        4    1
 -5  D1          1    2    1    0